<LesHouchesEvents version="3.0">
<header>
<!--
#*********************************************************************
#                                                                    *
#                        MadGraph5_aMC@NLO                           *
#                                                                    *
#                           Going Beyond                             *
#                                                                    *
#                   http://madgraph.hep.uiuc.edu                     *
#                   http://madgraph.phys.ucl.ac.be                   *
#                   http://amcatnlo.cern.ch                          *
#                                                                    *
#                     The MadGraph5_aMC@NLO team                     *
#                                                                    *
#....................................................................*
#                                                                    *
# This file contains all the information necessary to reproduce      *
# the events generated:                                              *
#                                                                    *
# 1. software version                                                *
# 2. proc_card          : code generation info including model       *
# 3. param_card         : model primary parameters in the LH format  *
# 4. run_card           : running parameters (collider and cuts)     *
# 5. pythia_card        : present only if pythia has been run        *
# 6. pgs_card           : present only if pgs has been run           *
# 7. delphes_cards      : present only if delphes has been run       *
#                                                                    *
#                                                                    *
#*********************************************************************
-->
<MGVersion>
3.3.1
</MGVersion>
<MG5ProcCard>
<![CDATA[
#************************************************************
#*                     MadGraph5_aMC@NLO                    *
#*                                                          *
#*                *                       *                 *
#*                  *        * *        *                   *
#*                    * * * * 5 * * * *                     *
#*                  *        * *        *                   *
#*                *                       *                 *
#*                                                          *
#*                                                          *
#*         VERSION 3.3.1                 2021-12-04         *
#*                                                          *
#*    The MadGraph5_aMC@NLO Development Team - Find us at   *
#*    https://server06.fynu.ucl.ac.be/projects/madgraph     *
#*                                                          *
#************************************************************
#*                                                          *
#*               Command File for MadGraph5_aMC@NLO         *
#*                                                          *
#*     run as ./bin/mg5_aMC  filename                       *
#*                                                          *
#************************************************************
set group_subprocesses Auto
set ignore_six_quark_processes False
set low_mem_multicore_nlo_generation False
set complex_mass_scheme False
set include_lepton_initiated_processes False
set gauge unitary
set loop_optimized_output True
set loop_color_flows False
set max_npoint_for_channel 0
set default_unset_couplings 99
set max_t_for_channel 99
set zerowidth_tchannel True
set nlo_mixed_expansion True
import model sm
define p = g u c d s u~ c~ d~ s~
define j = g u c d s u~ c~ d~ s~
define l+ = e+ mu+
define l- = e- mu-
define vl = ve vm vt
define vl~ = ve~ vm~ vt~
import model /userdata/jordan/DVMuReint/RPVMSSM_UFO/RPVMSSM_UFO
define q = g u c d s u~ c~ d~ s~ b t b~ t~ h01 h2 h3 h+ h-
define p = g u c d s u~ c~ d~ s~ b b~
generate p p > mur- mur+ /q
output /userdata/jordan/run_data/run_17
]]>
</MG5ProcCard>
<MGProcCard>
#*********************************************************************
#                        MadGraph/MadEvent                           *
#                   http://madgraph.hep.uiuc.edu                     *
#                                                                    *
#                          proc_card.dat                             *
#*********************************************************************
#                                                                    *
#            This Files is generated by MADGRAPH 5                   *
#                                                                    *
# WARNING: This Files is generated for MADEVENT (compatibility issue)*
#          This files is NOT a valid MG4 proc_card.dat               *
#          Running this in MG4 will NEVER reproduce the result of MG5*
#                                                                    *
#*********************************************************************
#*********************************************************************
# Process(es) requested : mg2 input                                  *
#*********************************************************************
# Begin PROCESS # This is TAG. Do not modify this line
p p > mur- mur+ /q           #Process
# Be carefull the coupling are here in MG5 convention
          
end_coup           # End the couplings input

done               # this tells MG there are no more procs
# End PROCESS  # This is TAG. Do not modify this line
#*********************************************************************
# Model information                                                  *
#*********************************************************************
# Begin MODEL  # This is TAG. Do not modify this line
RPVMSSM_UFO
# End   MODEL  # This is TAG. Do not modify this line
#*********************************************************************
# Start multiparticle definitions                                    *
#*********************************************************************
# Begin MULTIPARTICLES # This is TAG. Do not modify this line

# End  MULTIPARTICLES # This is TAG. Do not modify this line
</MGProcCard>
<MGRunCard>
<![CDATA[
#*********************************************************************
#                       MadGraph5_aMC@NLO                            *
#                                                                    *
#                     run_card.dat MadEvent                          *
#                                                                    *
#  This file is used to set the parameters of the run.               *
#                                                                    *
#  Some notation/conventions:                                        *
#                                                                    *
#   Lines starting with a '# ' are info or comments                  *
#                                                                    *
#   mind the format:   value    = variable     ! comment             *
#                                                                    *
#   To display more options, you can type the command:               *
#      update full_run_card                                          *
#*********************************************************************
#                                                                    
#*********************************************************************
# Tag name for the run (one word)                                    *
#*********************************************************************
  tag_1     = run_tag ! name of the run 
#*********************************************************************
# Number of events and rnd seed                                      *
# Warning: Do not generate more than 1M events in a single run       *
#*********************************************************************
  10 = nevents ! Number of unweighted events requested #changed
 21 = iseed   ! rnd seed (0=assigned automatically=default))
#*********************************************************************
# Collider type and energy                                           *
# lpp: 0=No PDF, 1=proton, -1=antiproton, 2=elastic photon of proton,*
#             +/-3=PDF of electron/positron beam                     *
#             +/-4=PDF of muon/antimuon beam                         *
#*********************************************************************
     1        = lpp1    ! beam 1 type 
     1        = lpp2    ! beam 2 type
     6500.0     = ebeam1  ! beam 1 total energy in GeV
     6500.0     = ebeam2  ! beam 2 total energy in GeV
# To see polarised beam options: type "update beam_pol"

#*********************************************************************
# PDF CHOICE: this automatically fixes alpha_s and its evol.         *
# pdlabel: lhapdf=LHAPDF (installation needed) [1412.7420]           *
#          iww=Improved Weizsaecker-Williams Approx.[hep-ph/9310350] *
#          eva=Effective W/Z/A Approx.       [21yy.zzzzz]            *
#          none=No PDF, same as lhapdf with lppx=0                   *
#*********************************************************************
     nn23lo1    = pdlabel     ! PDF set 
     230000    = lhaid     ! if pdlabel=lhapdf, this is the lhapdf number
# To see heavy ion options: type "update ion_pdf"
#*********************************************************************
# Renormalization and factorization scales                           *
#*********************************************************************
 False = fixed_ren_scale  ! if .true. use fixed ren scale
     False = fixed_fac_scale  ! if .true. use fixed fac scale
 91.188  = scale            ! fixed ren scale
 91.188  = dsqrt_q2fact1    ! fixed fact scale for pdf1
 91.188  = dsqrt_q2fact2    ! fixed fact scale for pdf2
 -1 = dynamical_scale_choice ! Choose one of the preselected dynamical choices
 1.0  = scalefact        ! scale factor for event-by-event scales
 
#*********************************************************************
# Type and output format
#*********************************************************************
  False     = gridpack  !True = setting up the grid pack
  0.0 = time_of_flight ! threshold (in mm) below which the invariant livetime is not written (-1 means not written) # changed
  average =  event_norm       ! average/sum. Normalization of the weight in the LHEF
# To see MLM/CKKW  merging options: type "update MLM" or "update CKKW"

#*********************************************************************
#
#*********************************************************************
# Phase-Space Optimization strategy (basic options)
#*********************************************************************
   0  = nhel          ! using helicities importance sampling or not.
                             ! 0: sum over helicity, 1: importance sampling
   2  = sde_strategy  ! default integration strategy (hep-ph/2021.xxxxx)
                             ! 1 is old strategy (using amp square)
			     ! 2 is new strategy (using only the denominator)
# To see advanced option for Phase-Space optimization: type "update psoptim"			     
#*********************************************************************
# Generation bias, check the wiki page below for more information:   *
#  'cp3.irmp.ucl.ac.be/projects/madgraph/wiki/LOEventGenerationBias' *
#*********************************************************************
 None = bias_module  ! Bias type of bias, [None, ptj_bias, -custom_folder-]
 {} = bias_parameters ! Specifies the parameters of the module.
#
#*******************************                                                 
# Parton level cuts definition *
#*******************************
  0.0  = dsqrt_shat ! minimal shat for full process
#                                                                    
#
#*********************************************************************
# BW cutoff (M+/-bwcutoff*Gamma) ! Define on/off-shell for "$" and decay  
#*********************************************************************
  15.0  = bwcutoff      ! (M+/-bwcutoff*Gamma)
#*********************************************************************
# Standard Cuts                                                      *
#*********************************************************************
# Minimum and maximum pt's (for max, -1 means no cut)                *
#*********************************************************************
 {} = pt_min_pdg ! pt cut for other particles (use pdg code). Applied on particle and anti-particle
 {}	= pt_max_pdg ! pt cut for other particles (syntax e.g. {6: 100, 25: 50}) 
#
# For display option for energy cut in the partonic center of mass frame type 'update ecut'
#
#*********************************************************************
# Maximum and minimum absolute rapidity (for max, -1 means no cut)   *
#*********************************************************************
 {} = eta_min_pdg ! rap cut for other particles (use pdg code). Applied on particle and anti-particle
 {} = eta_max_pdg ! rap cut for other particles (syntax e.g. {6: 2.5, 23: 5})
#*********************************************************************
# Minimum and maximum DeltaR distance                                *
#*********************************************************************
#*********************************************************************
# Minimum and maximum invariant mass for pairs                       *
#*********************************************************************
 {} = mxx_min_pdg ! min invariant mass of a pair of particles X/X~ (e.g. {6:250})
 {'default': False} = mxx_only_part_antipart ! if True the invariant mass is applied only 
                       ! to pairs of particle/antiparticle and not to pairs of the same pdg codes.  
#*********************************************************************
# Inclusive cuts                                                     *
#*********************************************************************
 0.0  = ptheavy   ! minimum pt for at least one heavy final state
#*********************************************************************
# maximal pdg code for quark to be considered as a light jet         *
# (otherwise b cuts are applied)                                     *
#*********************************************************************
 5 = maxjetflavor    ! Maximum jet pdg code
#*********************************************************************
#
#*********************************************************************
# Store info for systematics studies                                 *
# WARNING: Do not use for interference type of computation           *
#*********************************************************************
   True  = use_syst      ! Enable systematics studies
#
systematics = systematics_program ! none, systematics [python], SysCalc [depreceted, C++]
['--mur=0.5,1,2', '--muf=0.5,1,2', '--pdf=errorset'] = systematics_arguments ! see: https://cp3.irmp.ucl.ac.be/projects/madgraph/wiki/Systematics#Systematicspythonmodule

1e-30 = small_width_treatment
]]>
</MGRunCard>
<slha>
######################################################################
## PARAM_CARD AUTOMATICALY GENERATED BY MG5 FOLLOWING UFO MODEL   ####
######################################################################
##                                                                  ##
##  Width set on Auto will be computed following the information    ##
##        present in the decay.py files of the model.               ##
##        See  arXiv:1402.1178 for more details.                    ##
##                                                                  ##
######################################################################

###################################
## INFORMATION FOR DSQMIX
###################################
Block dsqmix 
    1   1 1.000000e+00 # RRd1x1 
    2   2 1.000000e+00 # RRd2x2 
    3   3 9.387379e-01 # RRd3x3 
    3   6 3.446319e-01 # RRd3x6 
    4   4 1.000000e+00 # RRd4x4 
    5   5 1.000000e+00 # RRd5x5 
    6   3 -3.446319e-01 # RRd6x3 
    6   6 9.387379e-01 # RRd6x6 

###################################
## INFORMATION FOR FRALPHA
###################################
Block fralpha 
    1 -1.138252e-01 # alp 

###################################
## INFORMATION FOR HMIX
###################################
Block hmix 
    1 3.576810e+02 # RMUH 
    2 9.748624e+00 # tb 
    4 1.664391e+05 # MA2 

###################################
## INFORMATION FOR MASS
###################################
Block mass 
    5 4.889917e+00 # MB 
    6 1.750000e+02 # MT 
   15 1.777000e+00 # Mta 
   23 9.118760e+01 # MZ 
   24 7.982901e+01 # MW 
   25 1.108991e+02 # MH01 
   35 3.999601e+02 # MH02 
   36 3.995839e+02 # MA0 
   37 4.078790e+02 # MH 
  1000001 5.684411e+02 # Msd1 
  1000002 5.611190e+02 # Msu1 
  1000003 5.684411e+02 # Msd2 
  1000004 5.611190e+02 # Msu2 
  1000005 5.130652e+02 # Msd3 
  1000006 3.996685e+02 # Msu3 
  1000011 2.029157e+02 # Msl1 
  1000012 1.852583e+02 # Msn1 
  1000013 4.000000e+02 # Msl2 changed
  1000014 1.852583e+02 # Msn2 
  1000015 1.344909e+02 # Msl3 
  1000016 1.847085e+02 # Msn3 
  1000021 6.077137e+02 # Mgo 
  1000022 9.668807e+01 # Mneu1 
  1000023 1.810882e+02 # Mneu2 
  1000024 1.816965e+02 # Mch1 
  1000025 -3.637560e+02 # Mneu3 
  1000035 3.817294e+02 # Mneu4 
  1000037 3.799393e+02 # Mch2 
  2000001 5.452285e+02 # Msd4 
  2000002 5.492593e+02 # Msu4 
  2000003 5.452285e+02 # Msd5 
  2000004 5.492593e+02 # Msu5 
  2000005 5.437267e+02 # Msd6 
  2000006 5.857858e+02 # Msu6 
  2000011 1.441028e+02 # Msl4 
  2000013 4.000000e+02 # Msl5 changed
  2000015 2.068678e+02 # Msl6 
## Dependent parameters, given by model restrictions.
## Those values should be edited following the 
## analytical expression. MG5 ignores those values 
## but they are important for interfacing the output of MG5
## to external program such as Pythia.
  1 0.000000e+00 # d : 0.0 
  2 0.000000e+00 # u : 0.0 
  3 0.000000e+00 # s : 0.0 
  4 0.000000e+00 # c : 0.0 
  11 0.000000e+00 # e- : 0.0 
  12 0.000000e+00 # ve : 0.0 
  13 0.000000e+00 # mu- : 0.0 
  14 0.000000e+00 # vm : 0.0 
  16 0.000000e+00 # vt : 0.0 
  21 0.000000e+00 # g : 0.0 
  22 0.000000e+00 # a : 0.0 

###################################
## INFORMATION FOR MSD2
###################################
Block msd2 
    1   1 2.736847e+05 # RmD21x1 
    2   2 2.736847e+05 # RmD22x2 
    3   3 2.702620e+05 # RmD23x3 

###################################
## INFORMATION FOR MSE2
###################################
Block mse2 
    1   1 1.863063e+04 # RmE21x1 
    2   2 1.863063e+04 # RmE22x2 
    3   3 1.796764e+04 # RmE23x3 

###################################
## INFORMATION FOR MSL2
###################################
Block msl2 
    1   1 3.815567e+04 # RmL21x1 
    2   2 3.815567e+04 # RmL22x2 
    3   3 3.782868e+04 # RmL23x3 

###################################
## INFORMATION FOR MSOFT
###################################
Block msoft 
    1 1.013965e+02 # RMx1 
    2 1.915042e+02 # RMx2 
    3 5.882630e+02 # RMx3 
   21 3.233749e+04 # mHu2 
   22 -1.288001e+05 # mHd2 

###################################
## INFORMATION FOR MSQ2
###################################
Block msq2 
    1   1 2.998367e+05 # RmQ21x1 
    2   2 2.998367e+05 # RmQ22x2 
    3   3 2.487654e+05 # RmQ23x3 

###################################
## INFORMATION FOR MSU2
###################################
Block msu2 
    1   1 2.803821e+05 # RmU21x1 
    2   2 2.803821e+05 # RmU22x2 
    3   3 1.791371e+05 # RmU23x3 

###################################
## INFORMATION FOR NMIX
###################################
Block nmix 
    1   1 9.863644e-01 # RNN1x1 
    1   2 -5.311036e-02 # RNN1x2 
    1   3 1.464340e-01 # RNN1x3 
    1   4 -5.311861e-02 # RNN1x4 
    2   1 9.935054e-02 # RNN2x1 
    2   2 9.449493e-01 # RNN2x2 
    2   3 -2.698467e-01 # RNN2x3 
    2   4 1.561507e-01 # RNN2x4 
    3   1 -6.033880e-02 # RNN3x1 
    3   2 8.770049e-02 # RNN3x2 
    3   3 6.958775e-01 # RNN3x3 
    3   4 7.102270e-01 # RNN3x4 
    4   1 -1.165071e-01 # RNN4x1 
    4   2 3.107390e-01 # RNN4x2 
    4   3 6.492260e-01 # RNN4x3 
    4   4 -6.843778e-01 # RNN4x4 

###################################
## INFORMATION FOR RVLAMLLE
###################################
Block rvlamlle 
    1   2   1 2.000000e-01 # RLLE1x2x1 
    1   2   2 2.000000e-01 # RLLE1x2x2 
    1   2   3 2.000000e-01 # RLLE1x2x3 
    1   3   1 2.000000e-01 # RLLE1x3x1 
    1   3   2 2.000000e-01 # RLLE1x3x2 
    1   3   3 2.000000e-01 # RLLE1x3x3 
    2   1   1 -2.000000e-01 # RLLE2x1x1 
    2   1   2 -2.000000e-01 # RLLE2x1x2 
    2   1   3 -2.000000e-01 # RLLE2x1x3 
    2   3   1 2.000000e-01 # RLLE2x3x1 
    2   3   2 2.000000e-01 # RLLE2x3x2 
    2   3   3 2.000000e-01 # RLLE2x3x3 
    3   1   1 -2.000000e-01 # RLLE3x1x1 
    3   1   2 -2.000000e-01 # RLLE3x1x2 
    3   1   3 -2.000000e-01 # RLLE3x1x3 
    3   2   1 -2.000000e-01 # RLLE3x2x1 
    3   2   2 -2.000000e-01 # RLLE3x2x2 
    3   2   3 -2.000000e-01 # RLLE3x2x3 

###################################
## INFORMATION FOR RVLAMLQD
###################################
Block rvlamlqd 
    1   1   1 1.000000e-01 # RLQD1x1x1 
    1   1   2 1.000000e-01 # RLQD1x1x2 
    1   1   3 1.000000e-01 # RLQD1x1x3 
    1   2   1 1.000000e-01 # RLQD1x2x1 
    1   2   2 1.000000e-01 # RLQD1x2x2 
    1   2   3 1.000000e-01 # RLQD1x2x3 
    1   3   1 1.000000e-01 # RLQD1x3x1 
    1   3   2 1.000000e-01 # RLQD1x3x2 
    1   3   3 1.000000e-01 # RLQD1x3x3 
    2   1   1 1.000000e-01 # RLQD2x1x1 
    2   1   2 1.000000e-01 # RLQD2x1x2 
    2   1   3 1.000000e-01 # RLQD2x1x3 
    2   2   1 1.000000e-01 # RLQD2x2x1 
    2   2   2 1.000000e-01 # RLQD2x2x2 
    2   2   3 1.000000e-01 # RLQD2x2x3 
    2   3   1 1.000000e-01 # RLQD2x3x1 
    2   3   2 1.000000e-01 # RLQD2x3x2 
    2   3   3 1.000000e-01 # RLQD2x3x3 
    3   1   1 1.000000e-01 # RLQD3x1x1 
    3   1   2 1.000000e-01 # RLQD3x1x2 
    3   1   3 1.000000e-01 # RLQD3x1x3 
    3   2   1 1.000000e-01 # RLQD3x2x1 
    3   2   2 1.000000e-01 # RLQD3x2x2 
    3   2   3 1.000000e-01 # RLQD3x2x3 
    3   3   1 1.000000e-01 # RLQD3x3x1 
    3   3   2 1.000000e-01 # RLQD3x3x2 
    3   3   3 1.000000e-01 # RLQD3x3x3 

###################################
## INFORMATION FOR RVLAMUDD
###################################
Block rvlamudd 
    1   1   2 2.000000e-01 # RLDD1x1x2 
    1   1   3 2.000000e-01 # RLDD1x1x3 
    1   2   1 -2.000000e-01 # RLDD1x2x1 
    1   2   3 2.000000e-01 # RLDD1x2x3 
    1   3   1 -2.000000e-01 # RLDD1x3x1 
    1   3   2 -2.000000e-01 # RLDD1x3x2 
    2   1   2 2.000000e-01 # RLDD2x1x2 
    2   1   3 2.000000e-01 # RLDD2x1x3 
    2   2   1 -2.000000e-01 # RLDD2x2x1 
    2   2   3 2.000000e-01 # RLDD2x2x3 
    2   3   1 -2.000000e-01 # RLDD2x3x1 
    2   3   2 -2.000000e-01 # RLDD2x3x2 
    3   1   2 2.000000e-01 # RLDD3x1x2 
    3   1   3 2.000000e-01 # RLDD3x1x3 
    3   2   1 -2.000000e-01 # RLDD3x2x1 
    3   2   3 2.000000e-01 # RLDD3x2x3 
    3   3   1 -2.000000e-01 # RLDD3x3x1 
    3   3   2 -2.000000e-01 # RLDD3x3x2 

###################################
## INFORMATION FOR RVTLLE
###################################
Block rvtlle 
    1   2   1 2.000000e-01 # RTLE1x2x1 
    1   2   2 2.000000e-01 # RTLE1x2x2 
    1   2   3 2.000000e-01 # RTLE1x2x3 
    1   3   1 2.000000e-01 # RTLE1x3x1 
    1   3   2 2.000000e-01 # RTLE1x3x2 
    1   3   3 2.000000e-01 # RTLE1x3x3 
    2   1   1 -2.000000e-01 # RTLE2x1x1 
    2   1   2 -2.000000e-01 # RTLE2x1x2 
    2   1   3 -2.000000e-01 # RTLE2x1x3 
    2   3   1 2.000000e-01 # RTLE2x3x1 
    2   3   2 2.000000e-01 # RTLE2x3x2 
    2   3   3 2.000000e-01 # RTLE2x3x3 
    3   1   1 -2.000000e-01 # RTLE3x1x1 
    3   1   2 -2.000000e-01 # RTLE3x1x2 
    3   1   3 -2.000000e-01 # RTLE3x1x3 
    3   2   1 -2.000000e-01 # RTLE3x2x1 
    3   2   2 -2.000000e-01 # RTLE3x2x2 
    3   2   3 -2.000000e-01 # RTLE3x2x3 

###################################
## INFORMATION FOR RVTLQD
###################################
Block rvtlqd 
    1   1   1 1.000000e-01 # RTQD1x1x1 
    1   1   2 1.000000e-01 # RTQD1x1x2 
    1   1   3 1.000000e-01 # RTQD1x1x3 
    1   2   1 1.000000e-01 # RTQD1x2x1 
    1   2   2 1.000000e-01 # RTQD1x2x2 
    1   2   3 1.000000e-01 # RTQD1x2x3 
    1   3   1 1.000000e-01 # RTQD1x3x1 
    1   3   2 1.000000e-01 # RTQD1x3x2 
    1   3   3 1.000000e-01 # RTQD1x3x3 
    2   1   1 1.000000e-01 # RTQD2x1x1 
    2   1   2 1.000000e-01 # RTQD2x1x2 
    2   1   3 1.000000e-01 # RTQD2x1x3 
    2   2   1 1.000000e-01 # RTQD2x2x1 
    2   2   2 1.000000e-01 # RTQD2x2x2 
    2   2   3 1.000000e-01 # RTQD2x2x3 
    2   3   1 1.000000e-01 # RTQD2x3x1 
    2   3   2 1.000000e-01 # RTQD2x3x2 
    2   3   3 1.000000e-01 # RTQD2x3x3 
    3   1   1 1.000000e-01 # RTQD3x1x1 
    3   1   2 1.000000e-01 # RTQD3x1x2 
    3   1   3 1.000000e-01 # RTQD3x1x3 
    3   2   1 1.000000e-01 # RTQD3x2x1 
    3   2   2 1.000000e-01 # RTQD3x2x2 
    3   2   3 1.000000e-01 # RTQD3x2x3 
    3   3   1 1.000000e-01 # RTQD3x3x1 
    3   3   2 1.000000e-01 # RTQD3x3x2 
    3   3   3 1.000000e-01 # RTQD3x3x3 

###################################
## INFORMATION FOR RVTUDD
###################################
Block rvtudd 
    1   1   2 2.000000e-01 # RTDD1x1x2 
    1   1   3 2.000000e-01 # RTDD1x1x3 
    1   2   1 -2.000000e-01 # RTDD1x2x1 
    1   2   3 2.000000e-01 # RTDD1x2x3 
    1   3   1 -2.000000e-01 # RTDD1x3x1 
    1   3   2 -2.000000e-01 # RTDD1x3x2 
    2   1   2 2.000000e-01 # RTDD2x1x2 
    2   1   3 2.000000e-01 # RTDD2x1x3 
    2   2   1 -2.000000e-01 # RTDD2x2x1 
    2   2   3 2.000000e-01 # RTDD2x2x3 
    2   3   1 -2.000000e-01 # RTDD2x3x1 
    2   3   2 -2.000000e-01 # RTDD2x3x2 
    3   1   2 2.000000e-01 # RTDD3x1x2 
    3   1   3 2.000000e-01 # RTDD3x1x3 
    3   2   1 -2.000000e-01 # RTDD3x2x1 
    3   2   3 2.000000e-01 # RTDD3x2x3 
    3   3   1 -2.000000e-01 # RTDD3x3x1 
    3   3   2 -2.000000e-01 # RTDD3x3x2 

###################################
## INFORMATION FOR SELMIX
###################################
Block selmix 
    1   1 1.000000e+00 # RRl1x1 
    2   2 1.000000e+00 # RRl2x2 
    3   3 2.824872e-01 # RRl3x3 
    3   6 9.592711e-01 # RRl3x6 
    4   4 1.000000e+00 # RRl4x4 
    5   5 1.000000e+00 # RRl5x5 
    6   3 9.592711e-01 # RRl6x3 
    6   6 -2.824872e-01 # RRl6x6 

###################################
## INFORMATION FOR SMINPUTS
###################################
Block sminputs 
    1 1.279340e+02 # aEWM1 
    3 1.180000e-01 # aS (Note that Parameter not used if you use a PDF set) 

###################################
## INFORMATION FOR SNUMIX
###################################
Block snumix 
    1   1 1.000000e+00 # RRn1x1 
    2   2 1.000000e+00 # RRn2x2 
    3   3 1.000000e+00 # RRn3x3 

###################################
## INFORMATION FOR TD
###################################
Block td 
    3   3 -1.106937e+02 # Rtd3x3 

###################################
## INFORMATION FOR TE
###################################
Block te 
    3   3 -2.540197e+01 # Rte3x3 

###################################
## INFORMATION FOR TU
###################################
Block tu 
    3   3 -4.447525e+02 # Rtu3x3 

###################################
## INFORMATION FOR UMIX
###################################
Block umix 
    1   1 9.168349e-01 # RUU1x1 
    1   2 -3.992666e-01 # RUU1x2 
    2   1 3.992666e-01 # RUU2x1 
    2   2 9.168349e-01 # RUU2x2 

###################################
## INFORMATION FOR UPMNS
###################################
Block upmns 
    1   1 1.000000e+00 # RMNS1x1 
    2   2 1.000000e+00 # RMNS2x2 
    3   3 1.000000e+00 # RMNS3x3 

###################################
## INFORMATION FOR USQMIX
###################################
Block usqmix 
    1   1 1.000000e+00 # RRu1x1 
    2   2 1.000000e+00 # RRu2x2 
    3   3 5.536450e-01 # RRu3x3 
    3   6 8.327528e-01 # RRu3x6 
    4   4 1.000000e+00 # RRu4x4 
    5   5 1.000000e+00 # RRu5x5 
    6   3 8.327528e-01 # RRu6x3 
    6   6 -5.536450e-01 # RRu6x6 

###################################
## INFORMATION FOR VCKM
###################################
Block vckm 
    1   1 9.738404e-01 # RCKM1x1 
    1   2 2.271982e-01 # RCKM1x2 
    1   3 2.173989e-03 # RCKM1x3 
    2   1 -2.270868e-01 # RCKM2x1 
    2   2 9.729587e-01 # RCKM2x2 
    2   3 4.222469e-02 # RCKM2x3 
    3   1 7.478279e-03 # RCKM3x1 
    3   2 -4.161426e-02 # RCKM3x2 
    3   3 9.991002e-01 # RCKM3x3 

###################################
## INFORMATION FOR VMIX
###################################
Block vmix 
    1   1 9.725578e-01 # RVV1x1 
    1   2 -2.326612e-01 # RVV1x2 
    2   1 2.326612e-01 # RVV2x1 
    2   2 9.725578e-01 # RVV2x2 

###################################
## INFORMATION FOR YD
###################################
Block yd 
    3   3 1.388402e-01 # Ryd3x3 

###################################
## INFORMATION FOR YE
###################################
Block ye 
    3   3 1.008908e-01 # Rye3x3 

###################################
## INFORMATION FOR YU
###################################
Block yu 
    3   3 8.928445e-01 # Ryu3x3 

###################################
## INFORMATION FOR DECAY
###################################
DECAY   6 1.561950e+00 # WT 
DECAY  23 2.411433e+00 # WZ 
DECAY  24 2.002822e+00 # WW 
DECAY  25 1.986108e-03 # WH01 
DECAY  35 5.748014e-01 # WH02 
DECAY  36 6.321785e-01 # WA0 
DECAY  37 5.469628e-01 # WH 
DECAY 1000001 5.312788e+00 # Wsd1 
DECAY 1000002 5.477195e+00 # Wsu1 
DECAY 1000003 5.312788e+00 # Wsd2 
DECAY 1000004 5.477195e+00 # Wsu2 
DECAY 1000005 3.736276e+00 # Wsd3 
DECAY 1000006 2.021596e+00 # Wsu3 
DECAY 1000011 2.136822e-01 # Wsl1 
DECAY 1000012 1.498816e-01 # Wsn1 
DECAY 1000013 2.136822e-01 # Wsl2 
DECAY 1000014 1.498816e-01 # Wsn2 
DECAY 1000015 1.483273e-01 # Wsl3 
DECAY 1000016 1.475190e-01 # Wsn3 
DECAY 1000021 5.506754e+00 # Wgo 
DECAY 1000022 2.777005e-03 # Wneu1 
DECAY 1000023 2.077700e-02 # Wneu2 
DECAY 1000024 1.704145e-02 # Wch1 
DECAY 1000025 1.915985e+00 # Wneu3 
DECAY 1000035 2.585851e+00 # Wneu4 
DECAY 1000037 2.486895e+00 # Wch2 
DECAY 2000001 2.858123e-01 # Wsd4 
DECAY 2000002 1.152973e+00 # Wsu4 
DECAY 2000003 2.858123e-01 # Wsd5 
DECAY 2000004 1.152973e+00 # Wsu5 
DECAY 2000005 8.015663e-01 # Wsd6 
DECAY 2000006 7.373133e+00 # Wsu6 
DECAY 2000011 2.161216e-01 # Wsl4 
DECAY 2000013 6.500000e-15 # Wsl5 changed
1 2 13 -12
DECAY 2000015 2.699061e-01 # Wsl6 
## Dependent parameters, given by model restrictions.
## Those values should be edited following the 
## analytical expression. MG5 ignores those values 
## but they are important for interfacing the output of MG5
## to external program such as Pythia.
DECAY  1 0.000000e+00 # d : 0.0 
DECAY  2 0.000000e+00 # u : 0.0 
DECAY  3 0.000000e+00 # s : 0.0 
DECAY  4 0.000000e+00 # c : 0.0 
DECAY  5 0.000000e+00 # b : 0.0 
DECAY  11 0.000000e+00 # e- : 0.0 
DECAY  12 0.000000e+00 # ve : 0.0 
DECAY  13 0.000000e+00 # mu- : 0.0 
DECAY  14 0.000000e+00 # vm : 0.0 
DECAY  15 0.000000e+00 # ta- : 0.0 
DECAY  16 0.000000e+00 # vt : 0.0 
DECAY  21 0.000000e+00 # g : 0.0 
DECAY  22 0.000000e+00 # a : 0.0 
#===========================================================
# QUANTUM NUMBERS OF NEW STATE(S) (NON SM PDG CODE)
#===========================================================

Block QNUMBERS 1000022  # n1 
        1 0  # 3 times electric charge
        2 2  # number of spin states (2S+1)
        3 1  # colour rep (1: singlet, 3: triplet, 8: octet)
        4 0  # Particle/Antiparticle distinction (0=own anti)
Block QNUMBERS 1000023  # n2 
        1 0  # 3 times electric charge
        2 2  # number of spin states (2S+1)
        3 1  # colour rep (1: singlet, 3: triplet, 8: octet)
        4 0  # Particle/Antiparticle distinction (0=own anti)
Block QNUMBERS 1000025  # n3 
        1 0  # 3 times electric charge
        2 2  # number of spin states (2S+1)
        3 1  # colour rep (1: singlet, 3: triplet, 8: octet)
        4 0  # Particle/Antiparticle distinction (0=own anti)
Block QNUMBERS 1000035  # n4 
        1 0  # 3 times electric charge
        2 2  # number of spin states (2S+1)
        3 1  # colour rep (1: singlet, 3: triplet, 8: octet)
        4 0  # Particle/Antiparticle distinction (0=own anti)
Block QNUMBERS 1000024  # x1+ 
        1 3  # 3 times electric charge
        2 2  # number of spin states (2S+1)
        3 1  # colour rep (1: singlet, 3: triplet, 8: octet)
        4 1  # Particle/Antiparticle distinction (0=own anti)
Block QNUMBERS 1000037  # x2+ 
        1 3  # 3 times electric charge
        2 2  # number of spin states (2S+1)
        3 1  # colour rep (1: singlet, 3: triplet, 8: octet)
        4 1  # Particle/Antiparticle distinction (0=own anti)
Block QNUMBERS 1000021  # go 
        1 0  # 3 times electric charge
        2 2  # number of spin states (2S+1)
        3 8  # colour rep (1: singlet, 3: triplet, 8: octet)
        4 0  # Particle/Antiparticle distinction (0=own anti)
Block QNUMBERS 35  # h2 
        1 0  # 3 times electric charge
        2 1  # number of spin states (2S+1)
        3 1  # colour rep (1: singlet, 3: triplet, 8: octet)
        4 0  # Particle/Antiparticle distinction (0=own anti)
Block QNUMBERS 36  # h3 
        1 0  # 3 times electric charge
        2 1  # number of spin states (2S+1)
        3 1  # colour rep (1: singlet, 3: triplet, 8: octet)
        4 0  # Particle/Antiparticle distinction (0=own anti)
Block QNUMBERS 37  # h+ 
        1 3  # 3 times electric charge
        2 1  # number of spin states (2S+1)
        3 1  # colour rep (1: singlet, 3: triplet, 8: octet)
        4 1  # Particle/Antiparticle distinction (0=own anti)
Block QNUMBERS 1000012  # sve 
        1 0  # 3 times electric charge
        2 1  # number of spin states (2S+1)
        3 1  # colour rep (1: singlet, 3: triplet, 8: octet)
        4 1  # Particle/Antiparticle distinction (0=own anti)
Block QNUMBERS 1000014  # svm 
        1 0  # 3 times electric charge
        2 1  # number of spin states (2S+1)
        3 1  # colour rep (1: singlet, 3: triplet, 8: octet)
        4 1  # Particle/Antiparticle distinction (0=own anti)
Block QNUMBERS 1000016  # svt 
        1 0  # 3 times electric charge
        2 1  # number of spin states (2S+1)
        3 1  # colour rep (1: singlet, 3: triplet, 8: octet)
        4 1  # Particle/Antiparticle distinction (0=own anti)
Block QNUMBERS 1000011  # el- 
        1 -3  # 3 times electric charge
        2 1  # number of spin states (2S+1)
        3 1  # colour rep (1: singlet, 3: triplet, 8: octet)
        4 1  # Particle/Antiparticle distinction (0=own anti)
Block QNUMBERS 1000013  # mul- 
        1 -3  # 3 times electric charge
        2 1  # number of spin states (2S+1)
        3 1  # colour rep (1: singlet, 3: triplet, 8: octet)
        4 1  # Particle/Antiparticle distinction (0=own anti)
Block QNUMBERS 1000015  # ta1- 
        1 -3  # 3 times electric charge
        2 1  # number of spin states (2S+1)
        3 1  # colour rep (1: singlet, 3: triplet, 8: octet)
        4 1  # Particle/Antiparticle distinction (0=own anti)
Block QNUMBERS 2000011  # er- 
        1 -3  # 3 times electric charge
        2 1  # number of spin states (2S+1)
        3 1  # colour rep (1: singlet, 3: triplet, 8: octet)
        4 1  # Particle/Antiparticle distinction (0=own anti)
Block QNUMBERS 2000013  # mur- 
        1 -3  # 3 times electric charge
        2 1  # number of spin states (2S+1)
        3 1  # colour rep (1: singlet, 3: triplet, 8: octet)
        4 1  # Particle/Antiparticle distinction (0=own anti)
Block QNUMBERS 2000015  # ta2- 
        1 -3  # 3 times electric charge
        2 1  # number of spin states (2S+1)
        3 1  # colour rep (1: singlet, 3: triplet, 8: octet)
        4 1  # Particle/Antiparticle distinction (0=own anti)
Block QNUMBERS 1000002  # ul 
        1 2  # 3 times electric charge
        2 1  # number of spin states (2S+1)
        3 3  # colour rep (1: singlet, 3: triplet, 8: octet)
        4 1  # Particle/Antiparticle distinction (0=own anti)
Block QNUMBERS 1000004  # cl 
        1 2  # 3 times electric charge
        2 1  # number of spin states (2S+1)
        3 3  # colour rep (1: singlet, 3: triplet, 8: octet)
        4 1  # Particle/Antiparticle distinction (0=own anti)
Block QNUMBERS 1000006  # t1 
        1 2  # 3 times electric charge
        2 1  # number of spin states (2S+1)
        3 3  # colour rep (1: singlet, 3: triplet, 8: octet)
        4 1  # Particle/Antiparticle distinction (0=own anti)
Block QNUMBERS 2000002  # ur 
        1 2  # 3 times electric charge
        2 1  # number of spin states (2S+1)
        3 3  # colour rep (1: singlet, 3: triplet, 8: octet)
        4 1  # Particle/Antiparticle distinction (0=own anti)
Block QNUMBERS 2000004  # cr 
        1 2  # 3 times electric charge
        2 1  # number of spin states (2S+1)
        3 3  # colour rep (1: singlet, 3: triplet, 8: octet)
        4 1  # Particle/Antiparticle distinction (0=own anti)
Block QNUMBERS 2000006  # t2 
        1 2  # 3 times electric charge
        2 1  # number of spin states (2S+1)
        3 3  # colour rep (1: singlet, 3: triplet, 8: octet)
        4 1  # Particle/Antiparticle distinction (0=own anti)
Block QNUMBERS 1000001  # dl 
        1 -1  # 3 times electric charge
        2 1  # number of spin states (2S+1)
        3 3  # colour rep (1: singlet, 3: triplet, 8: octet)
        4 1  # Particle/Antiparticle distinction (0=own anti)
Block QNUMBERS 1000003  # sl 
        1 -1  # 3 times electric charge
        2 1  # number of spin states (2S+1)
        3 3  # colour rep (1: singlet, 3: triplet, 8: octet)
        4 1  # Particle/Antiparticle distinction (0=own anti)
Block QNUMBERS 1000005  # b1 
        1 -1  # 3 times electric charge
        2 1  # number of spin states (2S+1)
        3 3  # colour rep (1: singlet, 3: triplet, 8: octet)
        4 1  # Particle/Antiparticle distinction (0=own anti)
Block QNUMBERS 2000001  # dr 
        1 -1  # 3 times electric charge
        2 1  # number of spin states (2S+1)
        3 3  # colour rep (1: singlet, 3: triplet, 8: octet)
        4 1  # Particle/Antiparticle distinction (0=own anti)
Block QNUMBERS 2000003  # sr 
        1 -1  # 3 times electric charge
        2 1  # number of spin states (2S+1)
        3 3  # colour rep (1: singlet, 3: triplet, 8: octet)
        4 1  # Particle/Antiparticle distinction (0=own anti)
Block QNUMBERS 2000005  # b2 
        1 -1  # 3 times electric charge
        2 1  # number of spin states (2S+1)
        3 3  # colour rep (1: singlet, 3: triplet, 8: octet)
        4 1  # Particle/Antiparticle distinction (0=own anti)
</slha>
<initrwgt>
<weightgroup name="Central scale variation" combine="envelope">
<weight id="1" MUR="0.5"  MUF="0.5"  PDF="247000" > MUR=0.5 MUF=0.5  </weight>
<weight id="2" MUR="0.5"  MUF="0.5"  DYN_SCALE="1"  PDF="247000" > MUR=0.5 MUF=0.5 dyn_scale_choice=sum pt  </weight>
<weight id="3" MUR="0.5"  MUF="0.5"  DYN_SCALE="2"  PDF="247000" > MUR=0.5 MUF=0.5 dyn_scale_choice=HT  </weight>
<weight id="4" MUR="0.5"  MUF="0.5"  DYN_SCALE="3"  PDF="247000" > MUR=0.5 MUF=0.5 dyn_scale_choice=HT/2  </weight>
<weight id="5" MUR="0.5"  MUF="0.5"  DYN_SCALE="4"  PDF="247000" > MUR=0.5 MUF=0.5 dyn_scale_choice=sqrts  </weight>
<weight id="6" MUR="0.5"  MUF="1.0"  PDF="247000" > MUR=0.5  </weight>
<weight id="7" MUR="0.5"  MUF="1.0"  DYN_SCALE="1"  PDF="247000" > MUR=0.5 dyn_scale_choice=sum pt  </weight>
<weight id="8" MUR="0.5"  MUF="1.0"  DYN_SCALE="2"  PDF="247000" > MUR=0.5 dyn_scale_choice=HT  </weight>
<weight id="9" MUR="0.5"  MUF="1.0"  DYN_SCALE="3"  PDF="247000" > MUR=0.5 dyn_scale_choice=HT/2  </weight>
<weight id="10" MUR="0.5"  MUF="1.0"  DYN_SCALE="4"  PDF="247000" > MUR=0.5 dyn_scale_choice=sqrts  </weight>
<weight id="11" MUR="0.5"  MUF="2.0"  PDF="247000" > MUR=0.5 MUF=2.0  </weight>
<weight id="12" MUR="0.5"  MUF="2.0"  DYN_SCALE="1"  PDF="247000" > MUR=0.5 MUF=2.0 dyn_scale_choice=sum pt  </weight>
<weight id="13" MUR="0.5"  MUF="2.0"  DYN_SCALE="2"  PDF="247000" > MUR=0.5 MUF=2.0 dyn_scale_choice=HT  </weight>
<weight id="14" MUR="0.5"  MUF="2.0"  DYN_SCALE="3"  PDF="247000" > MUR=0.5 MUF=2.0 dyn_scale_choice=HT/2  </weight>
<weight id="15" MUR="0.5"  MUF="2.0"  DYN_SCALE="4"  PDF="247000" > MUR=0.5 MUF=2.0 dyn_scale_choice=sqrts  </weight>
<weight id="16" MUR="1.0"  MUF="0.5"  PDF="247000" > MUF=0.5  </weight>
<weight id="17" MUR="1.0"  MUF="0.5"  DYN_SCALE="1"  PDF="247000" > MUF=0.5 dyn_scale_choice=sum pt  </weight>
<weight id="18" MUR="1.0"  MUF="0.5"  DYN_SCALE="2"  PDF="247000" > MUF=0.5 dyn_scale_choice=HT  </weight>
<weight id="19" MUR="1.0"  MUF="0.5"  DYN_SCALE="3"  PDF="247000" > MUF=0.5 dyn_scale_choice=HT/2  </weight>
<weight id="20" MUR="1.0"  MUF="0.5"  DYN_SCALE="4"  PDF="247000" > MUF=0.5 dyn_scale_choice=sqrts  </weight>
<weight id="21" MUR="1.0"  MUF="1.0"  DYN_SCALE="1"  PDF="247000" > dyn_scale_choice=sum pt  </weight>
<weight id="22" MUR="1.0"  MUF="1.0"  DYN_SCALE="2"  PDF="247000" > dyn_scale_choice=HT  </weight>
<weight id="23" MUR="1.0"  MUF="1.0"  DYN_SCALE="3"  PDF="247000" > dyn_scale_choice=HT/2  </weight>
<weight id="24" MUR="1.0"  MUF="1.0"  DYN_SCALE="4"  PDF="247000" > dyn_scale_choice=sqrts  </weight>
<weight id="25" MUR="1.0"  MUF="2.0"  PDF="247000" > MUF=2.0  </weight>
<weight id="26" MUR="1.0"  MUF="2.0"  DYN_SCALE="1"  PDF="247000" > MUF=2.0 dyn_scale_choice=sum pt  </weight>
<weight id="27" MUR="1.0"  MUF="2.0"  DYN_SCALE="2"  PDF="247000" > MUF=2.0 dyn_scale_choice=HT  </weight>
<weight id="28" MUR="1.0"  MUF="2.0"  DYN_SCALE="3"  PDF="247000" > MUF=2.0 dyn_scale_choice=HT/2  </weight>
<weight id="29" MUR="1.0"  MUF="2.0"  DYN_SCALE="4"  PDF="247000" > MUF=2.0 dyn_scale_choice=sqrts  </weight>
<weight id="30" MUR="2.0"  MUF="0.5"  PDF="247000" > MUR=2.0 MUF=0.5  </weight>
<weight id="31" MUR="2.0"  MUF="0.5"  DYN_SCALE="1"  PDF="247000" > MUR=2.0 MUF=0.5 dyn_scale_choice=sum pt  </weight>
<weight id="32" MUR="2.0"  MUF="0.5"  DYN_SCALE="2"  PDF="247000" > MUR=2.0 MUF=0.5 dyn_scale_choice=HT  </weight>
<weight id="33" MUR="2.0"  MUF="0.5"  DYN_SCALE="3"  PDF="247000" > MUR=2.0 MUF=0.5 dyn_scale_choice=HT/2  </weight>
<weight id="34" MUR="2.0"  MUF="0.5"  DYN_SCALE="4"  PDF="247000" > MUR=2.0 MUF=0.5 dyn_scale_choice=sqrts  </weight>
<weight id="35" MUR="2.0"  MUF="1.0"  PDF="247000" > MUR=2.0  </weight>
<weight id="36" MUR="2.0"  MUF="1.0"  DYN_SCALE="1"  PDF="247000" > MUR=2.0 dyn_scale_choice=sum pt  </weight>
<weight id="37" MUR="2.0"  MUF="1.0"  DYN_SCALE="2"  PDF="247000" > MUR=2.0 dyn_scale_choice=HT  </weight>
<weight id="38" MUR="2.0"  MUF="1.0"  DYN_SCALE="3"  PDF="247000" > MUR=2.0 dyn_scale_choice=HT/2  </weight>
<weight id="39" MUR="2.0"  MUF="1.0"  DYN_SCALE="4"  PDF="247000" > MUR=2.0 dyn_scale_choice=sqrts  </weight>
<weight id="40" MUR="2.0"  MUF="2.0"  PDF="247000" > MUR=2.0 MUF=2.0  </weight>
<weight id="41" MUR="2.0"  MUF="2.0"  DYN_SCALE="1"  PDF="247000" > MUR=2.0 MUF=2.0 dyn_scale_choice=sum pt  </weight>
<weight id="42" MUR="2.0"  MUF="2.0"  DYN_SCALE="2"  PDF="247000" > MUR=2.0 MUF=2.0 dyn_scale_choice=HT  </weight>
<weight id="43" MUR="2.0"  MUF="2.0"  DYN_SCALE="3"  PDF="247000" > MUR=2.0 MUF=2.0 dyn_scale_choice=HT/2  </weight>
<weight id="44" MUR="2.0"  MUF="2.0"  DYN_SCALE="4"  PDF="247000" > MUR=2.0 MUF=2.0 dyn_scale_choice=sqrts  </weight>
</weightgroup> # scale
<weightgroup name="NNPDF23_lo_as_0130_qed" combine="replicas"> # 247000: LO QCD + LO QED PDF set, alphas(MZ)=0.130. mem=0 ; average on replicas; mem=1-100 ; PDF replicas
<weight id="45" MUR="1.0"  MUF="1.0"  PDF="247000" >  </weight>
<weight id="46" MUR="1.0"  MUF="1.0"  PDF="247001" > PDF=247000 MemberID=1 </weight>
<weight id="47" MUR="1.0"  MUF="1.0"  PDF="247002" > PDF=247000 MemberID=2 </weight>
<weight id="48" MUR="1.0"  MUF="1.0"  PDF="247003" > PDF=247000 MemberID=3 </weight>
<weight id="49" MUR="1.0"  MUF="1.0"  PDF="247004" > PDF=247000 MemberID=4 </weight>
<weight id="50" MUR="1.0"  MUF="1.0"  PDF="247005" > PDF=247000 MemberID=5 </weight>
<weight id="51" MUR="1.0"  MUF="1.0"  PDF="247006" > PDF=247000 MemberID=6 </weight>
<weight id="52" MUR="1.0"  MUF="1.0"  PDF="247007" > PDF=247000 MemberID=7 </weight>
<weight id="53" MUR="1.0"  MUF="1.0"  PDF="247008" > PDF=247000 MemberID=8 </weight>
<weight id="54" MUR="1.0"  MUF="1.0"  PDF="247009" > PDF=247000 MemberID=9 </weight>
<weight id="55" MUR="1.0"  MUF="1.0"  PDF="247010" > PDF=247000 MemberID=10 </weight>
<weight id="56" MUR="1.0"  MUF="1.0"  PDF="247011" > PDF=247000 MemberID=11 </weight>
<weight id="57" MUR="1.0"  MUF="1.0"  PDF="247012" > PDF=247000 MemberID=12 </weight>
<weight id="58" MUR="1.0"  MUF="1.0"  PDF="247013" > PDF=247000 MemberID=13 </weight>
<weight id="59" MUR="1.0"  MUF="1.0"  PDF="247014" > PDF=247000 MemberID=14 </weight>
<weight id="60" MUR="1.0"  MUF="1.0"  PDF="247015" > PDF=247000 MemberID=15 </weight>
<weight id="61" MUR="1.0"  MUF="1.0"  PDF="247016" > PDF=247000 MemberID=16 </weight>
<weight id="62" MUR="1.0"  MUF="1.0"  PDF="247017" > PDF=247000 MemberID=17 </weight>
<weight id="63" MUR="1.0"  MUF="1.0"  PDF="247018" > PDF=247000 MemberID=18 </weight>
<weight id="64" MUR="1.0"  MUF="1.0"  PDF="247019" > PDF=247000 MemberID=19 </weight>
<weight id="65" MUR="1.0"  MUF="1.0"  PDF="247020" > PDF=247000 MemberID=20 </weight>
<weight id="66" MUR="1.0"  MUF="1.0"  PDF="247021" > PDF=247000 MemberID=21 </weight>
<weight id="67" MUR="1.0"  MUF="1.0"  PDF="247022" > PDF=247000 MemberID=22 </weight>
<weight id="68" MUR="1.0"  MUF="1.0"  PDF="247023" > PDF=247000 MemberID=23 </weight>
<weight id="69" MUR="1.0"  MUF="1.0"  PDF="247024" > PDF=247000 MemberID=24 </weight>
<weight id="70" MUR="1.0"  MUF="1.0"  PDF="247025" > PDF=247000 MemberID=25 </weight>
<weight id="71" MUR="1.0"  MUF="1.0"  PDF="247026" > PDF=247000 MemberID=26 </weight>
<weight id="72" MUR="1.0"  MUF="1.0"  PDF="247027" > PDF=247000 MemberID=27 </weight>
<weight id="73" MUR="1.0"  MUF="1.0"  PDF="247028" > PDF=247000 MemberID=28 </weight>
<weight id="74" MUR="1.0"  MUF="1.0"  PDF="247029" > PDF=247000 MemberID=29 </weight>
<weight id="75" MUR="1.0"  MUF="1.0"  PDF="247030" > PDF=247000 MemberID=30 </weight>
<weight id="76" MUR="1.0"  MUF="1.0"  PDF="247031" > PDF=247000 MemberID=31 </weight>
<weight id="77" MUR="1.0"  MUF="1.0"  PDF="247032" > PDF=247000 MemberID=32 </weight>
<weight id="78" MUR="1.0"  MUF="1.0"  PDF="247033" > PDF=247000 MemberID=33 </weight>
<weight id="79" MUR="1.0"  MUF="1.0"  PDF="247034" > PDF=247000 MemberID=34 </weight>
<weight id="80" MUR="1.0"  MUF="1.0"  PDF="247035" > PDF=247000 MemberID=35 </weight>
<weight id="81" MUR="1.0"  MUF="1.0"  PDF="247036" > PDF=247000 MemberID=36 </weight>
<weight id="82" MUR="1.0"  MUF="1.0"  PDF="247037" > PDF=247000 MemberID=37 </weight>
<weight id="83" MUR="1.0"  MUF="1.0"  PDF="247038" > PDF=247000 MemberID=38 </weight>
<weight id="84" MUR="1.0"  MUF="1.0"  PDF="247039" > PDF=247000 MemberID=39 </weight>
<weight id="85" MUR="1.0"  MUF="1.0"  PDF="247040" > PDF=247000 MemberID=40 </weight>
<weight id="86" MUR="1.0"  MUF="1.0"  PDF="247041" > PDF=247000 MemberID=41 </weight>
<weight id="87" MUR="1.0"  MUF="1.0"  PDF="247042" > PDF=247000 MemberID=42 </weight>
<weight id="88" MUR="1.0"  MUF="1.0"  PDF="247043" > PDF=247000 MemberID=43 </weight>
<weight id="89" MUR="1.0"  MUF="1.0"  PDF="247044" > PDF=247000 MemberID=44 </weight>
<weight id="90" MUR="1.0"  MUF="1.0"  PDF="247045" > PDF=247000 MemberID=45 </weight>
<weight id="91" MUR="1.0"  MUF="1.0"  PDF="247046" > PDF=247000 MemberID=46 </weight>
<weight id="92" MUR="1.0"  MUF="1.0"  PDF="247047" > PDF=247000 MemberID=47 </weight>
<weight id="93" MUR="1.0"  MUF="1.0"  PDF="247048" > PDF=247000 MemberID=48 </weight>
<weight id="94" MUR="1.0"  MUF="1.0"  PDF="247049" > PDF=247000 MemberID=49 </weight>
<weight id="95" MUR="1.0"  MUF="1.0"  PDF="247050" > PDF=247000 MemberID=50 </weight>
<weight id="96" MUR="1.0"  MUF="1.0"  PDF="247051" > PDF=247000 MemberID=51 </weight>
<weight id="97" MUR="1.0"  MUF="1.0"  PDF="247052" > PDF=247000 MemberID=52 </weight>
<weight id="98" MUR="1.0"  MUF="1.0"  PDF="247053" > PDF=247000 MemberID=53 </weight>
<weight id="99" MUR="1.0"  MUF="1.0"  PDF="247054" > PDF=247000 MemberID=54 </weight>
<weight id="100" MUR="1.0"  MUF="1.0"  PDF="247055" > PDF=247000 MemberID=55 </weight>
<weight id="101" MUR="1.0"  MUF="1.0"  PDF="247056" > PDF=247000 MemberID=56 </weight>
<weight id="102" MUR="1.0"  MUF="1.0"  PDF="247057" > PDF=247000 MemberID=57 </weight>
<weight id="103" MUR="1.0"  MUF="1.0"  PDF="247058" > PDF=247000 MemberID=58 </weight>
<weight id="104" MUR="1.0"  MUF="1.0"  PDF="247059" > PDF=247000 MemberID=59 </weight>
<weight id="105" MUR="1.0"  MUF="1.0"  PDF="247060" > PDF=247000 MemberID=60 </weight>
<weight id="106" MUR="1.0"  MUF="1.0"  PDF="247061" > PDF=247000 MemberID=61 </weight>
<weight id="107" MUR="1.0"  MUF="1.0"  PDF="247062" > PDF=247000 MemberID=62 </weight>
<weight id="108" MUR="1.0"  MUF="1.0"  PDF="247063" > PDF=247000 MemberID=63 </weight>
<weight id="109" MUR="1.0"  MUF="1.0"  PDF="247064" > PDF=247000 MemberID=64 </weight>
<weight id="110" MUR="1.0"  MUF="1.0"  PDF="247065" > PDF=247000 MemberID=65 </weight>
<weight id="111" MUR="1.0"  MUF="1.0"  PDF="247066" > PDF=247000 MemberID=66 </weight>
<weight id="112" MUR="1.0"  MUF="1.0"  PDF="247067" > PDF=247000 MemberID=67 </weight>
<weight id="113" MUR="1.0"  MUF="1.0"  PDF="247068" > PDF=247000 MemberID=68 </weight>
<weight id="114" MUR="1.0"  MUF="1.0"  PDF="247069" > PDF=247000 MemberID=69 </weight>
<weight id="115" MUR="1.0"  MUF="1.0"  PDF="247070" > PDF=247000 MemberID=70 </weight>
<weight id="116" MUR="1.0"  MUF="1.0"  PDF="247071" > PDF=247000 MemberID=71 </weight>
<weight id="117" MUR="1.0"  MUF="1.0"  PDF="247072" > PDF=247000 MemberID=72 </weight>
<weight id="118" MUR="1.0"  MUF="1.0"  PDF="247073" > PDF=247000 MemberID=73 </weight>
<weight id="119" MUR="1.0"  MUF="1.0"  PDF="247074" > PDF=247000 MemberID=74 </weight>
<weight id="120" MUR="1.0"  MUF="1.0"  PDF="247075" > PDF=247000 MemberID=75 </weight>
<weight id="121" MUR="1.0"  MUF="1.0"  PDF="247076" > PDF=247000 MemberID=76 </weight>
<weight id="122" MUR="1.0"  MUF="1.0"  PDF="247077" > PDF=247000 MemberID=77 </weight>
<weight id="123" MUR="1.0"  MUF="1.0"  PDF="247078" > PDF=247000 MemberID=78 </weight>
<weight id="124" MUR="1.0"  MUF="1.0"  PDF="247079" > PDF=247000 MemberID=79 </weight>
<weight id="125" MUR="1.0"  MUF="1.0"  PDF="247080" > PDF=247000 MemberID=80 </weight>
<weight id="126" MUR="1.0"  MUF="1.0"  PDF="247081" > PDF=247000 MemberID=81 </weight>
<weight id="127" MUR="1.0"  MUF="1.0"  PDF="247082" > PDF=247000 MemberID=82 </weight>
<weight id="128" MUR="1.0"  MUF="1.0"  PDF="247083" > PDF=247000 MemberID=83 </weight>
<weight id="129" MUR="1.0"  MUF="1.0"  PDF="247084" > PDF=247000 MemberID=84 </weight>
<weight id="130" MUR="1.0"  MUF="1.0"  PDF="247085" > PDF=247000 MemberID=85 </weight>
<weight id="131" MUR="1.0"  MUF="1.0"  PDF="247086" > PDF=247000 MemberID=86 </weight>
<weight id="132" MUR="1.0"  MUF="1.0"  PDF="247087" > PDF=247000 MemberID=87 </weight>
<weight id="133" MUR="1.0"  MUF="1.0"  PDF="247088" > PDF=247000 MemberID=88 </weight>
<weight id="134" MUR="1.0"  MUF="1.0"  PDF="247089" > PDF=247000 MemberID=89 </weight>
<weight id="135" MUR="1.0"  MUF="1.0"  PDF="247090" > PDF=247000 MemberID=90 </weight>
<weight id="136" MUR="1.0"  MUF="1.0"  PDF="247091" > PDF=247000 MemberID=91 </weight>
<weight id="137" MUR="1.0"  MUF="1.0"  PDF="247092" > PDF=247000 MemberID=92 </weight>
<weight id="138" MUR="1.0"  MUF="1.0"  PDF="247093" > PDF=247000 MemberID=93 </weight>
<weight id="139" MUR="1.0"  MUF="1.0"  PDF="247094" > PDF=247000 MemberID=94 </weight>
<weight id="140" MUR="1.0"  MUF="1.0"  PDF="247095" > PDF=247000 MemberID=95 </weight>
<weight id="141" MUR="1.0"  MUF="1.0"  PDF="247096" > PDF=247000 MemberID=96 </weight>
<weight id="142" MUR="1.0"  MUF="1.0"  PDF="247097" > PDF=247000 MemberID=97 </weight>
<weight id="143" MUR="1.0"  MUF="1.0"  PDF="247098" > PDF=247000 MemberID=98 </weight>
<weight id="144" MUR="1.0"  MUF="1.0"  PDF="247099" > PDF=247000 MemberID=99 </weight>
<weight id="145" MUR="1.0"  MUF="1.0"  PDF="247100" > PDF=247000 MemberID=100 </weight>
</weightgroup>
</initrwgt>
<MGGenerationInfo>
#  Number of Events        :       10
#  Integrated weight (pb)  :       0.00039510085000000003
</MGGenerationInfo>
</header>
<init>
2212 2212 6.500000e+03 6.500000e+03 0 0 247000 247000 -4 1
3.951008e-04 3.381414e-06 3.951008e-04 1
<generator name='MadGraph5_aMC@NLO' version='3.3.1'>please cite 1405.0301 </generator>
</init>
<event>
 4      1 +3.9510085e-04 1.55244800e+03 7.81653100e-03 8.85030600e-02
        2 -1    0    0  501    0 +0.0000000000e+00 +0.0000000000e+00 +1.0703750174e+03 1.0703750174e+03 0.0000000000e+00 0.0000e+00 1.0000e+00
       -2 -1    0    0    0  501 -0.0000000000e+00 -0.0000000000e+00 -5.6290897672e+02 5.6290897672e+02 0.0000000000e+00 0.0000e+00 -1.0000e+00
  2000013  1    1    2    0    0 -5.0010400574e+02 +3.9385122915e+02 +4.5692393612e+02 8.7977399976e+02 4.0000000000e+02 2.0507e+01 0.0000e+00
 -2000013  1    1    2    0    0 +5.0010400574e+02 -3.9385122915e+02 +5.0542104556e+01 7.5350999436e+02 4.0000000000e+02 1.6852e+01 0.0000e+00
<mgrwt>
<rscale>  0 0.15524480E+04</rscale>
<asrwt>0</asrwt>
<pdfrwt beam="1">  1        2 0.16467308E+00 0.15524480E+04</pdfrwt>
<pdfrwt beam="2">  1       -2 0.86601381E-01 0.15524480E+04</pdfrwt>
<totfact> 0.25262233E+01</totfact>
</mgrwt>
<rwgt>
<wgt id='1'> +4.1640850e-04 </wgt>
<wgt id='2'> +4.1823556e-04 </wgt>
<wgt id='3'> +4.1742460e-04 </wgt>
<wgt id='4'> +4.4018489e-04 </wgt>
<wgt id='5'> +4.1640850e-04 </wgt>
<wgt id='6'> +3.9510085e-04 </wgt>
<wgt id='7'> +3.9681175e-04 </wgt>
<wgt id='8'> +3.9605225e-04 </wgt>
<wgt id='9'> +4.1742460e-04 </wgt>
<wgt id='10'> +3.9510085e-04 </wgt>
<wgt id='11'> +3.7518682e-04 </wgt>
<wgt id='12'> +3.7678361e-04 </wgt>
<wgt id='13'> +3.7607473e-04 </wgt>
<wgt id='14'> +3.9605225e-04 </wgt>
<wgt id='15'> +3.7518681e-04 </wgt>
<wgt id='16'> +4.1640850e-04 </wgt>
<wgt id='17'> +4.1823556e-04 </wgt>
<wgt id='18'> +4.1742460e-04 </wgt>
<wgt id='19'> +4.4018489e-04 </wgt>
<wgt id='20'> +4.1640850e-04 </wgt>
<wgt id='21'> +3.9681175e-04 </wgt>
<wgt id='22'> +3.9605225e-04 </wgt>
<wgt id='23'> +4.1742460e-04 </wgt>
<wgt id='24'> +3.9510085e-04 </wgt>
<wgt id='25'> +3.7518682e-04 </wgt>
<wgt id='26'> +3.7678361e-04 </wgt>
<wgt id='27'> +3.7607473e-04 </wgt>
<wgt id='28'> +3.9605225e-04 </wgt>
<wgt id='29'> +3.7518681e-04 </wgt>
<wgt id='30'> +4.1640850e-04 </wgt>
<wgt id='31'> +4.1823556e-04 </wgt>
<wgt id='32'> +4.1742460e-04 </wgt>
<wgt id='33'> +4.4018489e-04 </wgt>
<wgt id='34'> +4.1640850e-04 </wgt>
<wgt id='35'> +3.9510085e-04 </wgt>
<wgt id='36'> +3.9681175e-04 </wgt>
<wgt id='37'> +3.9605225e-04 </wgt>
<wgt id='38'> +4.1742460e-04 </wgt>
<wgt id='39'> +3.9510085e-04 </wgt>
<wgt id='40'> +3.7518682e-04 </wgt>
<wgt id='41'> +3.7678361e-04 </wgt>
<wgt id='42'> +3.7607473e-04 </wgt>
<wgt id='43'> +3.9605225e-04 </wgt>
<wgt id='44'> +3.7518681e-04 </wgt>
<wgt id='45'> +3.9510085e-04 </wgt>
<wgt id='46'> +4.1244635e-04 </wgt>
<wgt id='47'> +3.8695074e-04 </wgt>
<wgt id='48'> +3.7887871e-04 </wgt>
<wgt id='49'> +4.2798335e-04 </wgt>
<wgt id='50'> +3.2769226e-04 </wgt>
<wgt id='51'> +3.7818298e-04 </wgt>
<wgt id='52'> +4.1963553e-04 </wgt>
<wgt id='53'> +4.1574738e-04 </wgt>
<wgt id='54'> +3.7981008e-04 </wgt>
<wgt id='55'> +3.8244300e-04 </wgt>
<wgt id='56'> +4.0657607e-04 </wgt>
<wgt id='57'> +3.4448786e-04 </wgt>
<wgt id='58'> +4.4914149e-04 </wgt>
<wgt id='59'> +3.9223709e-04 </wgt>
<wgt id='60'> +4.0308031e-04 </wgt>
<wgt id='61'> +3.6807873e-04 </wgt>
<wgt id='62'> +4.0266351e-04 </wgt>
<wgt id='63'> +4.1198621e-04 </wgt>
<wgt id='64'> +3.6694623e-04 </wgt>
<wgt id='65'> +3.6160278e-04 </wgt>
<wgt id='66'> +3.8393342e-04 </wgt>
<wgt id='67'> +4.1747900e-04 </wgt>
<wgt id='68'> +3.4303412e-04 </wgt>
<wgt id='69'> +3.7276931e-04 </wgt>
<wgt id='70'> +4.3387811e-04 </wgt>
<wgt id='71'> +3.7640745e-04 </wgt>
<wgt id='72'> +3.6924249e-04 </wgt>
<wgt id='73'> +4.1912706e-04 </wgt>
<wgt id='74'> +3.5403605e-04 </wgt>
<wgt id='75'> +3.6757317e-04 </wgt>
<wgt id='76'> +3.8981917e-04 </wgt>
<wgt id='77'> +4.1241209e-04 </wgt>
<wgt id='78'> +3.8202324e-04 </wgt>
<wgt id='79'> +4.0005869e-04 </wgt>
<wgt id='80'> +3.8647184e-04 </wgt>
<wgt id='81'> +4.2615055e-04 </wgt>
<wgt id='82'> +3.9648722e-04 </wgt>
<wgt id='83'> +3.8824407e-04 </wgt>
<wgt id='84'> +4.0832095e-04 </wgt>
<wgt id='85'> +3.9638271e-04 </wgt>
<wgt id='86'> +4.4830974e-04 </wgt>
<wgt id='87'> +4.0516420e-04 </wgt>
<wgt id='88'> +3.7030319e-04 </wgt>
<wgt id='89'> +4.9022122e-04 </wgt>
<wgt id='90'> +4.5000501e-04 </wgt>
<wgt id='91'> +3.5677886e-04 </wgt>
<wgt id='92'> +4.0571418e-04 </wgt>
<wgt id='93'> +3.8828701e-04 </wgt>
<wgt id='94'> +4.1765413e-04 </wgt>
<wgt id='95'> +3.7584086e-04 </wgt>
<wgt id='96'> +3.8521800e-04 </wgt>
<wgt id='97'> +4.0002130e-04 </wgt>
<wgt id='98'> +4.0613043e-04 </wgt>
<wgt id='99'> +4.2620800e-04 </wgt>
<wgt id='100'> +3.5724588e-04 </wgt>
<wgt id='101'> +3.7978466e-04 </wgt>
<wgt id='102'> +4.0080861e-04 </wgt>
<wgt id='103'> +4.1826789e-04 </wgt>
<wgt id='104'> +3.7413648e-04 </wgt>
<wgt id='105'> +3.8889075e-04 </wgt>
<wgt id='106'> +4.0647594e-04 </wgt>
<wgt id='107'> +3.9914924e-04 </wgt>
<wgt id='108'> +3.9697055e-04 </wgt>
<wgt id='109'> +4.0222519e-04 </wgt>
<wgt id='110'> +4.0591651e-04 </wgt>
<wgt id='111'> +3.9101045e-04 </wgt>
<wgt id='112'> +3.5909759e-04 </wgt>
<wgt id='113'> +4.0289017e-04 </wgt>
<wgt id='114'> +3.8647521e-04 </wgt>
<wgt id='115'> +3.6301895e-04 </wgt>
<wgt id='116'> +3.8896813e-04 </wgt>
<wgt id='117'> +3.6840220e-04 </wgt>
<wgt id='118'> +3.9081011e-04 </wgt>
<wgt id='119'> +4.2269232e-04 </wgt>
<wgt id='120'> +3.9383384e-04 </wgt>
<wgt id='121'> +3.9899611e-04 </wgt>
<wgt id='122'> +3.9482441e-04 </wgt>
<wgt id='123'> +4.0983940e-04 </wgt>
<wgt id='124'> +3.6938903e-04 </wgt>
<wgt id='125'> +3.3719972e-04 </wgt>
<wgt id='126'> +4.0690422e-04 </wgt>
<wgt id='127'> +4.1151247e-04 </wgt>
<wgt id='128'> +4.0400262e-04 </wgt>
<wgt id='129'> +3.8567907e-04 </wgt>
<wgt id='130'> +3.5568508e-04 </wgt>
<wgt id='131'> +4.1329463e-04 </wgt>
<wgt id='132'> +3.8378165e-04 </wgt>
<wgt id='133'> +4.7788189e-04 </wgt>
<wgt id='134'> +3.6350793e-04 </wgt>
<wgt id='135'> +3.6502970e-04 </wgt>
<wgt id='136'> +4.0626583e-04 </wgt>
<wgt id='137'> +4.0850723e-04 </wgt>
<wgt id='138'> +4.0316348e-04 </wgt>
<wgt id='139'> +4.7387004e-04 </wgt>
<wgt id='140'> +3.5541776e-04 </wgt>
<wgt id='141'> +3.8848306e-04 </wgt>
<wgt id='142'> +3.7090714e-04 </wgt>
<wgt id='143'> +4.0709740e-04 </wgt>
<wgt id='144'> +4.0152050e-04 </wgt>
<wgt id='145'> +4.2607970e-04 </wgt>
</rwgt>
</event>
<event>
 4      1 +3.9510085e-04 1.18815300e+03 7.81653100e-03 9.12329000e-02
        2 -1    0    0  501    0 +0.0000000000e+00 +0.0000000000e+00 +1.0215622185e+03 1.0215622185e+03 0.0000000000e+00 0.0000e+00 1.0000e+00
       -2 -1    0    0    0  501 -0.0000000000e+00 -0.0000000000e+00 -3.4547742993e+02 3.4547742993e+02 0.0000000000e+00 0.0000e+00 -1.0000e+00
  2000013  1    1    2    0    0 +1.9107949028e+02 +3.3959045081e+01 +7.9140071775e+02 9.0773326722e+02 4.0000000000e+02 9.2793e+01 0.0000e+00
 -2000013  1    1    2    0    0 -1.9107949028e+02 -3.3959045081e+01 -1.1531592914e+02 4.5930638126e+02 4.0000000000e+02 3.4284e+01 0.0000e+00
<mgrwt>
<rscale>  0 0.11881527E+04</rscale>
<asrwt>0</asrwt>
<pdfrwt beam="1">  1        2 0.15716342E+00 0.11881527E+04</pdfrwt>
<pdfrwt beam="2">  1       -2 0.53150374E-01 0.11881527E+04</pdfrwt>
<totfact> 0.80413526E+01</totfact>
</mgrwt>
<rwgt>
<wgt id='1'> +4.1144058e-04 </wgt>
<wgt id='2'> +4.2752550e-04 </wgt>
<wgt id='3'> +4.1841477e-04 </wgt>
<wgt id='4'> +4.3528921e-04 </wgt>
<wgt id='5'> +4.1144058e-04 </wgt>
<wgt id='6'> +3.9510085e-04 </wgt>
<wgt id='7'> +4.1076638e-04 </wgt>
<wgt id='8'> +4.0186790e-04 </wgt>
<wgt id='9'> +4.1841477e-04 </wgt>
<wgt id='10'> +3.9510085e-04 </wgt>
<wgt id='11'> +3.7936083e-04 </wgt>
<wgt id='12'> +3.9444837e-04 </wgt>
<wgt id='13'> +3.8586267e-04 </wgt>
<wgt id='14'> +4.0186790e-04 </wgt>
<wgt id='15'> +3.7936083e-04 </wgt>
<wgt id='16'> +4.1144058e-04 </wgt>
<wgt id='17'> +4.2752550e-04 </wgt>
<wgt id='18'> +4.1841477e-04 </wgt>
<wgt id='19'> +4.3528921e-04 </wgt>
<wgt id='20'> +4.1144058e-04 </wgt>
<wgt id='21'> +4.1076638e-04 </wgt>
<wgt id='22'> +4.0186790e-04 </wgt>
<wgt id='23'> +4.1841477e-04 </wgt>
<wgt id='24'> +3.9510085e-04 </wgt>
<wgt id='25'> +3.7936083e-04 </wgt>
<wgt id='26'> +3.9444837e-04 </wgt>
<wgt id='27'> +3.8586267e-04 </wgt>
<wgt id='28'> +4.0186790e-04 </wgt>
<wgt id='29'> +3.7936083e-04 </wgt>
<wgt id='30'> +4.1144058e-04 </wgt>
<wgt id='31'> +4.2752550e-04 </wgt>
<wgt id='32'> +4.1841477e-04 </wgt>
<wgt id='33'> +4.3528921e-04 </wgt>
<wgt id='34'> +4.1144058e-04 </wgt>
<wgt id='35'> +3.9510085e-04 </wgt>
<wgt id='36'> +4.1076638e-04 </wgt>
<wgt id='37'> +4.0186790e-04 </wgt>
<wgt id='38'> +4.1841477e-04 </wgt>
<wgt id='39'> +3.9510085e-04 </wgt>
<wgt id='40'> +3.7936083e-04 </wgt>
<wgt id='41'> +3.9444837e-04 </wgt>
<wgt id='42'> +3.8586267e-04 </wgt>
<wgt id='43'> +4.0186790e-04 </wgt>
<wgt id='44'> +3.7936083e-04 </wgt>
<wgt id='45'> +3.9510085e-04 </wgt>
<wgt id='46'> +4.1337947e-04 </wgt>
<wgt id='47'> +3.8552940e-04 </wgt>
<wgt id='48'> +3.7845490e-04 </wgt>
<wgt id='49'> +4.1140544e-04 </wgt>
<wgt id='50'> +3.3268465e-04 </wgt>
<wgt id='51'> +3.8629947e-04 </wgt>
<wgt id='52'> +4.1594636e-04 </wgt>
<wgt id='53'> +4.0602895e-04 </wgt>
<wgt id='54'> +3.7832349e-04 </wgt>
<wgt id='55'> +3.6967809e-04 </wgt>
<wgt id='56'> +4.2688669e-04 </wgt>
<wgt id='57'> +3.6002616e-04 </wgt>
<wgt id='58'> +4.2200134e-04 </wgt>
<wgt id='59'> +3.8012784e-04 </wgt>
<wgt id='60'> +4.0126285e-04 </wgt>
<wgt id='61'> +4.0020144e-04 </wgt>
<wgt id='62'> +4.1065336e-04 </wgt>
<wgt id='63'> +4.1944641e-04 </wgt>
<wgt id='64'> +3.7480414e-04 </wgt>
<wgt id='65'> +3.7035546e-04 </wgt>
<wgt id='66'> +3.9804265e-04 </wgt>
<wgt id='67'> +4.1826015e-04 </wgt>
<wgt id='68'> +3.3306444e-04 </wgt>
<wgt id='69'> +3.7549146e-04 </wgt>
<wgt id='70'> +4.0831398e-04 </wgt>
<wgt id='71'> +3.8860850e-04 </wgt>
<wgt id='72'> +3.7838324e-04 </wgt>
<wgt id='73'> +4.1166531e-04 </wgt>
<wgt id='74'> +3.4549663e-04 </wgt>
<wgt id='75'> +3.7371466e-04 </wgt>
<wgt id='76'> +3.9404045e-04 </wgt>
<wgt id='77'> +4.1747417e-04 </wgt>
<wgt id='78'> +3.9338161e-04 </wgt>
<wgt id='79'> +3.9672198e-04 </wgt>
<wgt id='80'> +4.1508209e-04 </wgt>
<wgt id='81'> +4.1327388e-04 </wgt>
<wgt id='82'> +3.8594004e-04 </wgt>
<wgt id='83'> +3.8275719e-04 </wgt>
<wgt id='84'> +4.0856006e-04 </wgt>
<wgt id='85'> +4.0182538e-04 </wgt>
<wgt id='86'> +4.3850781e-04 </wgt>
<wgt id='87'> +4.0009834e-04 </wgt>
<wgt id='88'> +3.8025688e-04 </wgt>
<wgt id='89'> +4.7466193e-04 </wgt>
<wgt id='90'> +4.5070734e-04 </wgt>
<wgt id='91'> +3.6497465e-04 </wgt>
<wgt id='92'> +4.1691089e-04 </wgt>
<wgt id='93'> +3.9400009e-04 </wgt>
<wgt id='94'> +4.1897358e-04 </wgt>
<wgt id='95'> +3.8340293e-04 </wgt>
<wgt id='96'> +3.8541969e-04 </wgt>
<wgt id='97'> +4.0725075e-04 </wgt>
<wgt id='98'> +4.0189207e-04 </wgt>
<wgt id='99'> +4.2587057e-04 </wgt>
<wgt id='100'> +3.8880045e-04 </wgt>
<wgt id='101'> +3.5815931e-04 </wgt>
<wgt id='102'> +3.8583126e-04 </wgt>
<wgt id='103'> +4.0705551e-04 </wgt>
<wgt id='104'> +3.7723222e-04 </wgt>
<wgt id='105'> +3.8074343e-04 </wgt>
<wgt id='106'> +4.1253412e-04 </wgt>
<wgt id='107'> +3.8834970e-04 </wgt>
<wgt id='108'> +4.2055686e-04 </wgt>
<wgt id='109'> +4.0922208e-04 </wgt>
<wgt id='110'> +4.1022356e-04 </wgt>
<wgt id='111'> +3.9690399e-04 </wgt>
<wgt id='112'> +3.7362362e-04 </wgt>
<wgt id='113'> +3.9696622e-04 </wgt>
<wgt id='114'> +3.8483999e-04 </wgt>
<wgt id='115'> +3.8834214e-04 </wgt>
<wgt id='116'> +3.7575784e-04 </wgt>
<wgt id='117'> +3.8446912e-04 </wgt>
<wgt id='118'> +3.7937562e-04 </wgt>
<wgt id='119'> +4.0931599e-04 </wgt>
<wgt id='120'> +3.9105748e-04 </wgt>
<wgt id='121'> +3.9293483e-04 </wgt>
<wgt id='122'> +3.9822166e-04 </wgt>
<wgt id='123'> +4.1281988e-04 </wgt>
<wgt id='124'> +3.6753727e-04 </wgt>
<wgt id='125'> +3.3309195e-04 </wgt>
<wgt id='126'> +4.0693843e-04 </wgt>
<wgt id='127'> +4.0656618e-04 </wgt>
<wgt id='128'> +4.0900719e-04 </wgt>
<wgt id='129'> +3.6659680e-04 </wgt>
<wgt id='130'> +3.7121045e-04 </wgt>
<wgt id='131'> +4.0498716e-04 </wgt>
<wgt id='132'> +3.7769402e-04 </wgt>
<wgt id='133'> +4.5082972e-04 </wgt>
<wgt id='134'> +3.6608522e-04 </wgt>
<wgt id='135'> +3.6824181e-04 </wgt>
<wgt id='136'> +3.8135357e-04 </wgt>
<wgt id='137'> +4.1143348e-04 </wgt>
<wgt id='138'> +4.1036949e-04 </wgt>
<wgt id='139'> +4.5133622e-04 </wgt>
<wgt id='140'> +3.5863198e-04 </wgt>
<wgt id='141'> +3.7386860e-04 </wgt>
<wgt id='142'> +4.0317552e-04 </wgt>
<wgt id='143'> +4.0456124e-04 </wgt>
<wgt id='144'> +4.1160585e-04 </wgt>
<wgt id='145'> +4.2218712e-04 </wgt>
</rwgt>
</event>
<event>
 4      1 +3.9510085e-04 1.06965100e+03 7.81653100e-03 9.23528800e-02
        2 -1    0    0  501    0 +0.0000000000e+00 +0.0000000000e+00 +8.1952024274e+02 8.1952024274e+02 0.0000000000e+00 0.0000e+00 1.0000e+00
       -2 -1    0    0    0  501 -0.0000000000e+00 -0.0000000000e+00 -3.4903126343e+02 3.4903126343e+02 0.0000000000e+00 0.0000e+00 -1.0000e+00
  2000013  1    1    2    0    0 -2.1753753913e+02 +1.2334707707e+02 +5.1053832875e+02 6.9511615394e+02 4.0000000000e+02 1.6167e+01 0.0000e+00
 -2000013  1    1    2    0    0 +2.1753753913e+02 -1.2334707707e+02 -4.0049349437e+01 4.7343535223e+02 4.0000000000e+02 2.8151e+00 0.0000e+00
<mgrwt>
<rscale>  0 0.10696508E+04</rscale>
<asrwt>0</asrwt>
<pdfrwt beam="1">  1        2 0.12608004E+00 0.10696508E+04</pdfrwt>
<pdfrwt beam="2">  1       -2 0.53697118E-01 0.10696508E+04</pdfrwt>
<totfact> 0.10840888E+02</totfact>
</mgrwt>
<rwgt>
<wgt id='1'> +4.0858106e-04 </wgt>
<wgt id='2'> +4.1488919e-04 </wgt>
<wgt id='3'> +4.1102425e-04 </wgt>
<wgt id='4'> +4.2439267e-04 </wgt>
<wgt id='5'> +4.0858106e-04 </wgt>
<wgt id='6'> +3.9510085e-04 </wgt>
<wgt id='7'> +4.0140095e-04 </wgt>
<wgt id='8'> +3.9753401e-04 </wgt>
<wgt id='9'> +4.1102425e-04 </wgt>
<wgt id='10'> +3.9510085e-04 </wgt>
<wgt id='11'> +3.8180334e-04 </wgt>
<wgt id='12'> +3.8799413e-04 </wgt>
<wgt id='13'> +3.8418994e-04 </wgt>
<wgt id='14'> +3.9753401e-04 </wgt>
<wgt id='15'> +3.8180334e-04 </wgt>
<wgt id='16'> +4.0858106e-04 </wgt>
<wgt id='17'> +4.1488919e-04 </wgt>
<wgt id='18'> +4.1102425e-04 </wgt>
<wgt id='19'> +4.2439267e-04 </wgt>
<wgt id='20'> +4.0858106e-04 </wgt>
<wgt id='21'> +4.0140095e-04 </wgt>
<wgt id='22'> +3.9753401e-04 </wgt>
<wgt id='23'> +4.1102425e-04 </wgt>
<wgt id='24'> +3.9510085e-04 </wgt>
<wgt id='25'> +3.8180334e-04 </wgt>
<wgt id='26'> +3.8799413e-04 </wgt>
<wgt id='27'> +3.8418994e-04 </wgt>
<wgt id='28'> +3.9753401e-04 </wgt>
<wgt id='29'> +3.8180334e-04 </wgt>
<wgt id='30'> +4.0858106e-04 </wgt>
<wgt id='31'> +4.1488919e-04 </wgt>
<wgt id='32'> +4.1102425e-04 </wgt>
<wgt id='33'> +4.2439267e-04 </wgt>
<wgt id='34'> +4.0858106e-04 </wgt>
<wgt id='35'> +3.9510085e-04 </wgt>
<wgt id='36'> +4.0140095e-04 </wgt>
<wgt id='37'> +3.9753401e-04 </wgt>
<wgt id='38'> +4.1102425e-04 </wgt>
<wgt id='39'> +3.9510085e-04 </wgt>
<wgt id='40'> +3.8180334e-04 </wgt>
<wgt id='41'> +3.8799413e-04 </wgt>
<wgt id='42'> +3.8418994e-04 </wgt>
<wgt id='43'> +3.9753401e-04 </wgt>
<wgt id='44'> +3.8180334e-04 </wgt>
<wgt id='45'> +3.9510085e-04 </wgt>
<wgt id='46'> +4.1119178e-04 </wgt>
<wgt id='47'> +3.8490713e-04 </wgt>
<wgt id='48'> +3.7980319e-04 </wgt>
<wgt id='49'> +4.1297558e-04 </wgt>
<wgt id='50'> +3.3504475e-04 </wgt>
<wgt id='51'> +3.8901066e-04 </wgt>
<wgt id='52'> +4.1328763e-04 </wgt>
<wgt id='53'> +4.0566413e-04 </wgt>
<wgt id='54'> +3.7861889e-04 </wgt>
<wgt id='55'> +3.7210658e-04 </wgt>
<wgt id='56'> +4.2510931e-04 </wgt>
<wgt id='57'> +3.6192273e-04 </wgt>
<wgt id='58'> +4.1987655e-04 </wgt>
<wgt id='59'> +3.8512425e-04 </wgt>
<wgt id='60'> +4.0007085e-04 </wgt>
<wgt id='61'> +3.9902480e-04 </wgt>
<wgt id='62'> +4.1141644e-04 </wgt>
<wgt id='63'> +4.1766735e-04 </wgt>
<wgt id='64'> +3.7543043e-04 </wgt>
<wgt id='65'> +3.7152858e-04 </wgt>
<wgt id='66'> +4.0119698e-04 </wgt>
<wgt id='67'> +4.1719615e-04 </wgt>
<wgt id='68'> +3.3354411e-04 </wgt>
<wgt id='69'> +3.7588440e-04 </wgt>
<wgt id='70'> +4.0785962e-04 </wgt>
<wgt id='71'> +3.9116924e-04 </wgt>
<wgt id='72'> +3.7856189e-04 </wgt>
<wgt id='73'> +4.0987715e-04 </wgt>
<wgt id='74'> +3.4717469e-04 </wgt>
<wgt id='75'> +3.7308917e-04 </wgt>
<wgt id='76'> +3.9341198e-04 </wgt>
<wgt id='77'> +4.1759038e-04 </wgt>
<wgt id='78'> +3.9246068e-04 </wgt>
<wgt id='79'> +3.9646589e-04 </wgt>
<wgt id='80'> +4.1264281e-04 </wgt>
<wgt id='81'> +4.1114178e-04 </wgt>
<wgt id='82'> +3.8748115e-04 </wgt>
<wgt id='83'> +3.8153883e-04 </wgt>
<wgt id='84'> +4.0728426e-04 </wgt>
<wgt id='85'> +4.0067545e-04 </wgt>
<wgt id='86'> +4.3823960e-04 </wgt>
<wgt id='87'> +3.9914160e-04 </wgt>
<wgt id='88'> +3.7997842e-04 </wgt>
<wgt id='89'> +4.6911961e-04 </wgt>
<wgt id='90'> +4.4833163e-04 </wgt>
<wgt id='91'> +3.6765979e-04 </wgt>
<wgt id='92'> +4.1579486e-04 </wgt>
<wgt id='93'> +3.9199272e-04 </wgt>
<wgt id='94'> +4.1727896e-04 </wgt>
<wgt id='95'> +3.8399587e-04 </wgt>
<wgt id='96'> +3.8493172e-04 </wgt>
<wgt id='97'> +4.0581934e-04 </wgt>
<wgt id='98'> +4.0112228e-04 </wgt>
<wgt id='99'> +4.2304427e-04 </wgt>
<wgt id='100'> +3.9213880e-04 </wgt>
<wgt id='101'> +3.6067444e-04 </wgt>
<wgt id='102'> +3.8536933e-04 </wgt>
<wgt id='103'> +4.0488001e-04 </wgt>
<wgt id='104'> +3.7930651e-04 </wgt>
<wgt id='105'> +3.8067833e-04 </wgt>
<wgt id='106'> +4.1021461e-04 </wgt>
<wgt id='107'> +3.8954878e-04 </wgt>
<wgt id='108'> +4.1943956e-04 </wgt>
<wgt id='109'> +4.1115576e-04 </wgt>
<wgt id='110'> +4.0964754e-04 </wgt>
<wgt id='111'> +3.9634778e-04 </wgt>
<wgt id='112'> +3.7380871e-04 </wgt>
<wgt id='113'> +3.9724952e-04 </wgt>
<wgt id='114'> +3.8681951e-04 </wgt>
<wgt id='115'> +3.8796405e-04 </wgt>
<wgt id='116'> +3.8010313e-04 </wgt>
<wgt id='117'> +3.8377075e-04 </wgt>
<wgt id='118'> +3.7884021e-04 </wgt>
<wgt id='119'> +4.0844601e-04 </wgt>
<wgt id='120'> +3.8897251e-04 </wgt>
<wgt id='121'> +3.9469852e-04 </wgt>
<wgt id='122'> +3.9739142e-04 </wgt>
<wgt id='123'> +4.1179548e-04 </wgt>
<wgt id='124'> +3.6944780e-04 </wgt>
<wgt id='125'> +3.3599063e-04 </wgt>
<wgt id='126'> +4.0530742e-04 </wgt>
<wgt id='127'> +4.0601085e-04 </wgt>
<wgt id='128'> +4.1160047e-04 </wgt>
<wgt id='129'> +3.6858829e-04 </wgt>
<wgt id='130'> +3.7143480e-04 </wgt>
<wgt id='131'> +4.0287409e-04 </wgt>
<wgt id='132'> +3.7831767e-04 </wgt>
<wgt id='133'> +4.4890750e-04 </wgt>
<wgt id='134'> +3.6652455e-04 </wgt>
<wgt id='135'> +3.7081219e-04 </wgt>
<wgt id='136'> +3.8208740e-04 </wgt>
<wgt id='137'> +4.1168631e-04 </wgt>
<wgt id='138'> +4.0908497e-04 </wgt>
<wgt id='139'> +4.4694101e-04 </wgt>
<wgt id='140'> +3.5786418e-04 </wgt>
<wgt id='141'> +3.7522908e-04 </wgt>
<wgt id='142'> +4.0362875e-04 </wgt>
<wgt id='143'> +4.0514478e-04 </wgt>
<wgt id='144'> +4.1165453e-04 </wgt>
<wgt id='145'> +4.1956066e-04 </wgt>
</rwgt>
</event>
<event>
 4      1 +3.9510085e-04 8.88429400e+02 7.81653100e-03 9.44016200e-02
        2 -1    0    0  501    0 +0.0000000000e+00 +0.0000000000e+00 +8.9361432153e+02 8.9361432153e+02 0.0000000000e+00 0.0000e+00 1.0000e+00
       -2 -1    0    0    0  501 -0.0000000000e+00 -0.0000000000e+00 -2.2081865991e+02 2.2081865991e+02 0.0000000000e+00 0.0000e+00 -1.0000e+00
  2000013  1    1    2    0    0 +1.0275006338e+02 +1.4827006855e+02 +2.4962619103e+02 5.0483148079e+02 4.0000000000e+02 9.4187e+00 0.0000e+00
 -2000013  1    1    2    0    0 -1.0275006338e+02 -1.4827006855e+02 +4.2316947059e+02 6.0960150065e+02 4.0000000000e+02 4.0090e+00 0.0000e+00
<mgrwt>
<rscale>  0 0.88842944E+03</rscale>
<asrwt>0</asrwt>
<pdfrwt beam="1">  1        2 0.13747912E+00 0.88842944E+03</pdfrwt>
<pdfrwt beam="2">  1       -2 0.33972102E-01 0.88842944E+03</pdfrwt>
<totfact> 0.24065159E+02</totfact>
</mgrwt>
<rwgt>
<wgt id='1'> +4.0560135e-04 </wgt>
<wgt id='2'> +4.1293521e-04 </wgt>
<wgt id='3'> +4.0578310e-04 </wgt>
<wgt id='4'> +4.1566790e-04 </wgt>
<wgt id='5'> +4.0560135e-04 </wgt>
<wgt id='6'> +3.9510085e-04 </wgt>
<wgt id='7'> +4.0283425e-04 </wgt>
<wgt id='8'> +3.9528990e-04 </wgt>
<wgt id='9'> +4.0578310e-04 </wgt>
<wgt id='10'> +3.9510085e-04 </wgt>
<wgt id='11'> +3.8433287e-04 </wgt>
<wgt id='12'> +3.9223479e-04 </wgt>
<wgt id='13'> +3.8452446e-04 </wgt>
<wgt id='14'> +3.9528990e-04 </wgt>
<wgt id='15'> +3.8433287e-04 </wgt>
<wgt id='16'> +4.0560135e-04 </wgt>
<wgt id='17'> +4.1293521e-04 </wgt>
<wgt id='18'> +4.0578310e-04 </wgt>
<wgt id='19'> +4.1566790e-04 </wgt>
<wgt id='20'> +4.0560135e-04 </wgt>
<wgt id='21'> +4.0283425e-04 </wgt>
<wgt id='22'> +3.9528990e-04 </wgt>
<wgt id='23'> +4.0578310e-04 </wgt>
<wgt id='24'> +3.9510085e-04 </wgt>
<wgt id='25'> +3.8433287e-04 </wgt>
<wgt id='26'> +3.9223479e-04 </wgt>
<wgt id='27'> +3.8452446e-04 </wgt>
<wgt id='28'> +3.9528990e-04 </wgt>
<wgt id='29'> +3.8433287e-04 </wgt>
<wgt id='30'> +4.0560135e-04 </wgt>
<wgt id='31'> +4.1293521e-04 </wgt>
<wgt id='32'> +4.0578310e-04 </wgt>
<wgt id='33'> +4.1566790e-04 </wgt>
<wgt id='34'> +4.0560135e-04 </wgt>
<wgt id='35'> +3.9510085e-04 </wgt>
<wgt id='36'> +4.0283425e-04 </wgt>
<wgt id='37'> +3.9528990e-04 </wgt>
<wgt id='38'> +4.0578310e-04 </wgt>
<wgt id='39'> +3.9510085e-04 </wgt>
<wgt id='40'> +3.8433287e-04 </wgt>
<wgt id='41'> +3.9223479e-04 </wgt>
<wgt id='42'> +3.8452446e-04 </wgt>
<wgt id='43'> +3.9528990e-04 </wgt>
<wgt id='44'> +3.8433287e-04 </wgt>
<wgt id='45'> +3.9510085e-04 </wgt>
<wgt id='46'> +4.0868470e-04 </wgt>
<wgt id='47'> +3.8480951e-04 </wgt>
<wgt id='48'> +3.8150541e-04 </wgt>
<wgt id='49'> +4.0084682e-04 </wgt>
<wgt id='50'> +3.4105218e-04 </wgt>
<wgt id='51'> +3.9403972e-04 </wgt>
<wgt id='52'> +4.0534261e-04 </wgt>
<wgt id='53'> +4.0244715e-04 </wgt>
<wgt id='54'> +3.8063722e-04 </wgt>
<wgt id='55'> +3.6812210e-04 </wgt>
<wgt id='56'> +4.3206835e-04 </wgt>
<wgt id='57'> +3.7344898e-04 </wgt>
<wgt id='58'> +4.0836821e-04 </wgt>
<wgt id='59'> +3.7638627e-04 </wgt>
<wgt id='60'> +3.9818396e-04 </wgt>
<wgt id='61'> +4.2091562e-04 </wgt>
<wgt id='62'> +4.1415561e-04 </wgt>
<wgt id='63'> +4.1629323e-04 </wgt>
<wgt id='64'> +3.8132621e-04 </wgt>
<wgt id='65'> +3.7543454e-04 </wgt>
<wgt id='66'> +4.0675789e-04 </wgt>
<wgt id='67'> +4.1502671e-04 </wgt>
<wgt id='68'> +3.2854300e-04 </wgt>
<wgt id='69'> +3.7352140e-04 </wgt>
<wgt id='70'> +3.9337130e-04 </wgt>
<wgt id='71'> +3.9565994e-04 </wgt>
<wgt id='72'> +3.8884447e-04 </wgt>
<wgt id='73'> +4.0735433e-04 </wgt>
<wgt id='74'> +3.4629107e-04 </wgt>
<wgt id='75'> +3.7493695e-04 </wgt>
<wgt id='76'> +3.9958855e-04 </wgt>
<wgt id='77'> +4.1463600e-04 </wgt>
<wgt id='78'> +4.0271323e-04 </wgt>
<wgt id='79'> +3.9687293e-04 </wgt>
<wgt id='80'> +4.2428504e-04 </wgt>
<wgt id='81'> +4.0392530e-04 </wgt>
<wgt id='82'> +3.8451232e-04 </wgt>
<wgt id='83'> +3.8071766e-04 </wgt>
<wgt id='84'> +4.0435488e-04 </wgt>
<wgt id='85'> +4.0075008e-04 </wgt>
<wgt id='86'> +4.2273010e-04 </wgt>
<wgt id='87'> +3.9874967e-04 </wgt>
<wgt id='88'> +3.8988513e-04 </wgt>
<wgt id='89'> +4.4830792e-04 </wgt>
<wgt id='90'> +4.4463874e-04 </wgt>
<wgt id='91'> +3.7095870e-04 </wgt>
<wgt id='92'> +4.1894460e-04 </wgt>
<wgt id='93'> +3.9370440e-04 </wgt>
<wgt id='94'> +4.1504806e-04 </wgt>
<wgt id='95'> +3.8808696e-04 </wgt>
<wgt id='96'> +3.8605776e-04 </wgt>
<wgt id='97'> +4.0929740e-04 </wgt>
<wgt id='98'> +4.0085150e-04 </wgt>
<wgt id='99'> +4.2106190e-04 </wgt>
<wgt id='100'> +4.1085845e-04 </wgt>
<wgt id='101'> +3.4875791e-04 </wgt>
<wgt id='102'> +3.7603658e-04 </wgt>
<wgt id='103'> +3.9725522e-04 </wgt>
<wgt id='104'> +3.8112655e-04 </wgt>
<wgt id='105'> +3.8174686e-04 </wgt>
<wgt id='106'> +4.1680324e-04 </wgt>
<wgt id='107'> +3.8506953e-04 </wgt>
<wgt id='108'> +4.3088217e-04 </wgt>
<wgt id='109'> +4.1305120e-04 </wgt>
<wgt id='110'> +4.1236839e-04 </wgt>
<wgt id='111'> +4.0299420e-04 </wgt>
<wgt id='112'> +3.8792610e-04 </wgt>
<wgt id='113'> +3.9615951e-04 </wgt>
<wgt id='114'> +3.8811430e-04 </wgt>
<wgt id='115'> +4.0514342e-04 </wgt>
<wgt id='116'> +3.7494510e-04 </wgt>
<wgt id='117'> +3.9321367e-04 </wgt>
<wgt id='118'> +3.7257674e-04 </wgt>
<wgt id='119'> +4.0224044e-04 </wgt>
<wgt id='120'> +3.9218747e-04 </wgt>
<wgt id='121'> +3.9254955e-04 </wgt>
<wgt id='122'> +4.0174846e-04 </wgt>
<wgt id='123'> +4.1773910e-04 </wgt>
<wgt id='124'> +3.6895606e-04 </wgt>
<wgt id='125'> +3.3635490e-04 </wgt>
<wgt id='126'> +4.0219080e-04 </wgt>
<wgt id='127'> +4.0035443e-04 </wgt>
<wgt id='128'> +4.0967117e-04 </wgt>
<wgt id='129'> +3.5952414e-04 </wgt>
<wgt id='130'> +3.8168061e-04 </wgt>
<wgt id='131'> +3.9718107e-04 </wgt>
<wgt id='132'> +3.7288482e-04 </wgt>
<wgt id='133'> +4.2487530e-04 </wgt>
<wgt id='134'> +3.7262517e-04 </wgt>
<wgt id='135'> +3.7410863e-04 </wgt>
<wgt id='136'> +3.7238093e-04 </wgt>
<wgt id='137'> +4.1346261e-04 </wgt>
<wgt id='138'> +4.1159476e-04 </wgt>
<wgt id='139'> +4.2539637e-04 </wgt>
<wgt id='140'> +3.6621582e-04 </wgt>
<wgt id='141'> +3.6996391e-04 </wgt>
<wgt id='142'> +4.2275483e-04 </wgt>
<wgt id='143'> +4.0471685e-04 </wgt>
<wgt id='144'> +4.1781888e-04 </wgt>
<wgt id='145'> +4.1654587e-04 </wgt>
</rwgt>
</event>
<event>
 4      1 +3.9510085e-04 9.94095100e+02 7.81653100e-03 9.31504500e-02
       -1 -1    0    0    0  501 -0.0000000000e+00 +0.0000000000e+00 +5.5892986020e+02 5.5892986020e+02 0.0000000000e+00 0.0000e+00 1.0000e+00
        1 -1    0    0  501    0 +0.0000000000e+00 -0.0000000000e+00 -4.4201658919e+02 4.4201658919e+02 0.0000000000e+00 0.0000e+00 -1.0000e+00
  2000013  1    1    2    0    0 +1.5352074562e+02 -1.1260123676e+02 +2.8541781250e+02 5.2698290821e+02 4.0000000000e+02 1.4739e+02 0.0000e+00
 -2000013  1    1    2    0    0 -1.5352074562e+02 +1.1260123676e+02 -1.6850454150e+02 4.7396354117e+02 4.0000000000e+02 1.0634e+01 0.0000e+00
<mgrwt>
<rscale>  0 0.99409511E+03</rscale>
<asrwt>0</asrwt>
<pdfrwt beam="2">  1        1 0.68002552E-01 0.99409511E+03</pdfrwt>
<pdfrwt beam="1">  1       -1 0.85989210E-01 0.99409511E+03</pdfrwt>
<totfact> 0.70290515E+01</totfact>
</mgrwt>
<rwgt>
<wgt id='1'> +4.1046419e-04 </wgt>
<wgt id='2'> +4.2016227e-04 </wgt>
<wgt id='3'> +4.1305587e-04 </wgt>
<wgt id='4'> +4.2880204e-04 </wgt>
<wgt id='5'> +4.1046419e-04 </wgt>
<wgt id='6'> +3.9510085e-04 </wgt>
<wgt id='7'> +4.0455531e-04 </wgt>
<wgt id='8'> +3.9761973e-04 </wgt>
<wgt id='9'> +4.1305587e-04 </wgt>
<wgt id='10'> +3.9510085e-04 </wgt>
<wgt id='11'> +3.8026089e-04 </wgt>
<wgt id='12'> +3.8937620e-04 </wgt>
<wgt id='13'> +3.8268459e-04 </wgt>
<wgt id='14'> +3.9761973e-04 </wgt>
<wgt id='15'> +3.8026089e-04 </wgt>
<wgt id='16'> +4.1046419e-04 </wgt>
<wgt id='17'> +4.2016227e-04 </wgt>
<wgt id='18'> +4.1305587e-04 </wgt>
<wgt id='19'> +4.2880204e-04 </wgt>
<wgt id='20'> +4.1046419e-04 </wgt>
<wgt id='21'> +4.0455531e-04 </wgt>
<wgt id='22'> +3.9761973e-04 </wgt>
<wgt id='23'> +4.1305587e-04 </wgt>
<wgt id='24'> +3.9510085e-04 </wgt>
<wgt id='25'> +3.8026089e-04 </wgt>
<wgt id='26'> +3.8937620e-04 </wgt>
<wgt id='27'> +3.8268459e-04 </wgt>
<wgt id='28'> +3.9761973e-04 </wgt>
<wgt id='29'> +3.8026089e-04 </wgt>
<wgt id='30'> +4.1046419e-04 </wgt>
<wgt id='31'> +4.2016227e-04 </wgt>
<wgt id='32'> +4.1305587e-04 </wgt>
<wgt id='33'> +4.2880204e-04 </wgt>
<wgt id='34'> +4.1046419e-04 </wgt>
<wgt id='35'> +3.9510085e-04 </wgt>
<wgt id='36'> +4.0455531e-04 </wgt>
<wgt id='37'> +3.9761973e-04 </wgt>
<wgt id='38'> +4.1305587e-04 </wgt>
<wgt id='39'> +3.9510085e-04 </wgt>
<wgt id='40'> +3.8026089e-04 </wgt>
<wgt id='41'> +3.8937620e-04 </wgt>
<wgt id='42'> +3.8268459e-04 </wgt>
<wgt id='43'> +3.9761973e-04 </wgt>
<wgt id='44'> +3.8026089e-04 </wgt>
<wgt id='45'> +3.9510085e-04 </wgt>
<wgt id='46'> +4.0929216e-04 </wgt>
<wgt id='47'> +4.0355676e-04 </wgt>
<wgt id='48'> +3.7504927e-04 </wgt>
<wgt id='49'> +3.7717947e-04 </wgt>
<wgt id='50'> +3.3612313e-04 </wgt>
<wgt id='51'> +3.6930299e-04 </wgt>
<wgt id='52'> +4.3985552e-04 </wgt>
<wgt id='53'> +4.2019931e-04 </wgt>
<wgt id='54'> +3.9452253e-04 </wgt>
<wgt id='55'> +3.7933747e-04 </wgt>
<wgt id='56'> +3.9343597e-04 </wgt>
<wgt id='57'> +3.4580239e-04 </wgt>
<wgt id='58'> +4.4700055e-04 </wgt>
<wgt id='59'> +3.6182098e-04 </wgt>
<wgt id='60'> +4.0062170e-04 </wgt>
<wgt id='61'> +3.6414523e-04 </wgt>
<wgt id='62'> +4.1652495e-04 </wgt>
<wgt id='63'> +4.1052179e-04 </wgt>
<wgt id='64'> +3.7797145e-04 </wgt>
<wgt id='65'> +3.7263538e-04 </wgt>
<wgt id='66'> +3.6784677e-04 </wgt>
<wgt id='67'> +4.1910378e-04 </wgt>
<wgt id='68'> +3.5548514e-04 </wgt>
<wgt id='69'> +3.7532526e-04 </wgt>
<wgt id='70'> +4.4081390e-04 </wgt>
<wgt id='71'> +3.8941663e-04 </wgt>
<wgt id='72'> +3.5723716e-04 </wgt>
<wgt id='73'> +4.2732786e-04 </wgt>
<wgt id='74'> +3.7120414e-04 </wgt>
<wgt id='75'> +3.7581027e-04 </wgt>
<wgt id='76'> +3.9645846e-04 </wgt>
<wgt id='77'> +3.8579036e-04 </wgt>
<wgt id='78'> +3.8209373e-04 </wgt>
<wgt id='79'> +4.1517390e-04 </wgt>
<wgt id='80'> +4.0195428e-04 </wgt>
<wgt id='81'> +4.3443682e-04 </wgt>
<wgt id='82'> +3.6966809e-04 </wgt>
<wgt id='83'> +3.8568262e-04 </wgt>
<wgt id='84'> +4.0240929e-04 </wgt>
<wgt id='85'> +3.8089346e-04 </wgt>
<wgt id='86'> +4.5074794e-04 </wgt>
<wgt id='87'> +4.0585097e-04 </wgt>
<wgt id='88'> +3.8107788e-04 </wgt>
<wgt id='89'> +4.6442695e-04 </wgt>
<wgt id='90'> +4.3653723e-04 </wgt>
<wgt id='91'> +3.7984116e-04 </wgt>
<wgt id='92'> +3.9359644e-04 </wgt>
<wgt id='93'> +4.1467794e-04 </wgt>
<wgt id='94'> +4.1794547e-04 </wgt>
<wgt id='95'> +3.7335142e-04 </wgt>
<wgt id='96'> +3.8389463e-04 </wgt>
<wgt id='97'> +3.8338830e-04 </wgt>
<wgt id='98'> +4.0900934e-04 </wgt>
<wgt id='99'> +4.3805004e-04 </wgt>
<wgt id='100'> +3.5184581e-04 </wgt>
<wgt id='101'> +3.8044140e-04 </wgt>
<wgt id='102'> +3.9931474e-04 </wgt>
<wgt id='103'> +4.0978530e-04 </wgt>
<wgt id='104'> +3.7600695e-04 </wgt>
<wgt id='105'> +4.0352062e-04 </wgt>
<wgt id='106'> +4.0898425e-04 </wgt>
<wgt id='107'> +3.8581877e-04 </wgt>
<wgt id='108'> +3.9079223e-04 </wgt>
<wgt id='109'> +3.5266101e-04 </wgt>
<wgt id='110'> +4.2018685e-04 </wgt>
<wgt id='111'> +3.8704626e-04 </wgt>
<wgt id='112'> +3.5655481e-04 </wgt>
<wgt id='113'> +4.0965761e-04 </wgt>
<wgt id='114'> +3.6469261e-04 </wgt>
<wgt id='115'> +3.6441020e-04 </wgt>
<wgt id='116'> +3.6068927e-04 </wgt>
<wgt id='117'> +3.6998549e-04 </wgt>
<wgt id='118'> +3.8958607e-04 </wgt>
<wgt id='119'> +4.1893350e-04 </wgt>
<wgt id='120'> +3.9868730e-04 </wgt>
<wgt id='121'> +3.5803452e-04 </wgt>
<wgt id='122'> +4.0208489e-04 </wgt>
<wgt id='123'> +3.9753516e-04 </wgt>
<wgt id='124'> +3.7843303e-04 </wgt>
<wgt id='125'> +3.5212043e-04 </wgt>
<wgt id='126'> +4.1821292e-04 </wgt>
<wgt id='127'> +4.0985621e-04 </wgt>
<wgt id='128'> +4.0688354e-04 </wgt>
<wgt id='129'> +3.8038483e-04 </wgt>
<wgt id='130'> +3.7688177e-04 </wgt>
<wgt id='131'> +4.2579217e-04 </wgt>
<wgt id='132'> +3.8215698e-04 </wgt>
<wgt id='133'> +4.6447869e-04 </wgt>
<wgt id='134'> +3.7092289e-04 </wgt>
<wgt id='135'> +3.3619708e-04 </wgt>
<wgt id='136'> +4.1131185e-04 </wgt>
<wgt id='137'> +4.1501095e-04 </wgt>
<wgt id='138'> +4.1540172e-04 </wgt>
<wgt id='139'> +4.4812177e-04 </wgt>
<wgt id='140'> +3.7061298e-04 </wgt>
<wgt id='141'> +4.0733146e-04 </wgt>
<wgt id='142'> +3.8937259e-04 </wgt>
<wgt id='143'> +4.0516138e-04 </wgt>
<wgt id='144'> +3.9000640e-04 </wgt>
<wgt id='145'> +4.2637092e-04 </wgt>
</rwgt>
</event>
<event>
 4      1 +3.9510085e-04 1.36576600e+03 7.81653100e-03 8.97897900e-02
        2 -1    0    0  501    0 +0.0000000000e+00 +0.0000000000e+00 +4.8375904033e+02 4.8375904033e+02 0.0000000000e+00 0.0000e+00 1.0000e+00
       -2 -1    0    0    0  501 -0.0000000000e+00 -0.0000000000e+00 -9.6396928456e+02 9.6396928456e+02 0.0000000000e+00 0.0000e+00 -1.0000e+00
  2000013  1    1    2    0    0 -4.9716948659e+02 +2.2820570543e+02 -3.2925659605e+02 7.5343562992e+02 4.0000000000e+02 5.9532e+00 0.0000e+00
 -2000013  1    1    2    0    0 +4.9716948659e+02 -2.2820570543e+02 -1.5095364817e+02 6.9429269497e+02 4.0000000000e+02 9.6627e-01 0.0000e+00
<mgrwt>
<rscale>  0 0.13657655E+04</rscale>
<asrwt>0</asrwt>
<pdfrwt beam="1">  1        2 0.74424468E-01 0.13657655E+04</pdfrwt>
<pdfrwt beam="2">  1       -2 0.14830297E+00 0.13657655E+04</pdfrwt>
<totfact> 0.19261079E+01</totfact>
</mgrwt>
<rwgt>
<wgt id='1'> +4.1325048e-04 </wgt>
<wgt id='2'> +4.1426742e-04 </wgt>
<wgt id='3'> +4.1345470e-04 </wgt>
<wgt id='4'> +4.3227267e-04 </wgt>
<wgt id='5'> +4.1325048e-04 </wgt>
<wgt id='6'> +3.9510085e-04 </wgt>
<wgt id='7'> +3.9607615e-04 </wgt>
<wgt id='8'> +3.9529667e-04 </wgt>
<wgt id='9'> +4.1345470e-04 </wgt>
<wgt id='10'> +3.9510085e-04 </wgt>
<wgt id='11'> +3.7777587e-04 </wgt>
<wgt id='12'> +3.7870338e-04 </wgt>
<wgt id='13'> +3.7796207e-04 </wgt>
<wgt id='14'> +3.9529667e-04 </wgt>
<wgt id='15'> +3.7777587e-04 </wgt>
<wgt id='16'> +4.1325048e-04 </wgt>
<wgt id='17'> +4.1426742e-04 </wgt>
<wgt id='18'> +4.1345470e-04 </wgt>
<wgt id='19'> +4.3227267e-04 </wgt>
<wgt id='20'> +4.1325048e-04 </wgt>
<wgt id='21'> +3.9607615e-04 </wgt>
<wgt id='22'> +3.9529667e-04 </wgt>
<wgt id='23'> +4.1345470e-04 </wgt>
<wgt id='24'> +3.9510085e-04 </wgt>
<wgt id='25'> +3.7777587e-04 </wgt>
<wgt id='26'> +3.7870338e-04 </wgt>
<wgt id='27'> +3.7796207e-04 </wgt>
<wgt id='28'> +3.9529667e-04 </wgt>
<wgt id='29'> +3.7777587e-04 </wgt>
<wgt id='30'> +4.1325048e-04 </wgt>
<wgt id='31'> +4.1426742e-04 </wgt>
<wgt id='32'> +4.1345470e-04 </wgt>
<wgt id='33'> +4.3227267e-04 </wgt>
<wgt id='34'> +4.1325048e-04 </wgt>
<wgt id='35'> +3.9510085e-04 </wgt>
<wgt id='36'> +3.9607615e-04 </wgt>
<wgt id='37'> +3.9529667e-04 </wgt>
<wgt id='38'> +4.1345470e-04 </wgt>
<wgt id='39'> +3.9510085e-04 </wgt>
<wgt id='40'> +3.7777587e-04 </wgt>
<wgt id='41'> +3.7870338e-04 </wgt>
<wgt id='42'> +3.7796207e-04 </wgt>
<wgt id='43'> +3.9529667e-04 </wgt>
<wgt id='44'> +3.7777587e-04 </wgt>
<wgt id='45'> +3.9510085e-04 </wgt>
<wgt id='46'> +4.0126834e-04 </wgt>
<wgt id='47'> +3.8894263e-04 </wgt>
<wgt id='48'> +3.8925867e-04 </wgt>
<wgt id='49'> +4.3791531e-04 </wgt>
<wgt id='50'> +3.3750374e-04 </wgt>
<wgt id='51'> +3.7509689e-04 </wgt>
<wgt id='52'> +4.0787700e-04 </wgt>
<wgt id='53'> +4.2579002e-04 </wgt>
<wgt id='54'> +3.9570810e-04 </wgt>
<wgt id='55'> +3.8985784e-04 </wgt>
<wgt id='56'> +3.5995941e-04 </wgt>
<wgt id='57'> +3.4522785e-04 </wgt>
<wgt id='58'> +4.6790207e-04 </wgt>
<wgt id='59'> +4.2885271e-04 </wgt>
<wgt id='60'> +3.9889252e-04 </wgt>
<wgt id='61'> +3.7163401e-04 </wgt>
<wgt id='62'> +3.9632731e-04 </wgt>
<wgt id='63'> +3.9742611e-04 </wgt>
<wgt id='64'> +3.5962670e-04 </wgt>
<wgt id='65'> +3.3752283e-04 </wgt>
<wgt id='66'> +3.7240255e-04 </wgt>
<wgt id='67'> +4.2011414e-04 </wgt>
<wgt id='68'> +3.5775905e-04 </wgt>
<wgt id='69'> +3.6117788e-04 </wgt>
<wgt id='70'> +4.6278337e-04 </wgt>
<wgt id='71'> +3.5314539e-04 </wgt>
<wgt id='72'> +3.6119138e-04 </wgt>
<wgt id='73'> +4.3275741e-04 </wgt>
<wgt id='74'> +3.8674003e-04 </wgt>
<wgt id='75'> +3.5857397e-04 </wgt>
<wgt id='76'> +3.8890232e-04 </wgt>
<wgt id='77'> +3.6614649e-04 </wgt>
<wgt id='78'> +3.6722990e-04 </wgt>
<wgt id='79'> +4.1168363e-04 </wgt>
<wgt id='80'> +3.1905133e-04 </wgt>
<wgt id='81'> +4.2451946e-04 </wgt>
<wgt id='82'> +4.2355848e-04 </wgt>
<wgt id='83'> +3.9828879e-04 </wgt>
<wgt id='84'> +3.9625793e-04 </wgt>
<wgt id='85'> +3.8468999e-04 </wgt>
<wgt id='86'> +4.6595901e-04 </wgt>
<wgt id='87'> +4.2025884e-04 </wgt>
<wgt id='88'> +3.8783292e-04 </wgt>
<wgt id='89'> +4.5193715e-04 </wgt>
<wgt id='90'> +4.2262958e-04 </wgt>
<wgt id='91'> +3.5378591e-04 </wgt>
<wgt id='92'> +3.6918326e-04 </wgt>
<wgt id='93'> +3.7939050e-04 </wgt>
<wgt id='94'> +4.1845940e-04 </wgt>
<wgt id='95'> +3.5946011e-04 </wgt>
<wgt id='96'> +3.9837246e-04 </wgt>
<wgt id='97'> +3.7303405e-04 </wgt>
<wgt id='98'> +4.1711032e-04 </wgt>
<wgt id='99'> +4.1066864e-04 </wgt>
<wgt id='100'> +3.2429579e-04 </wgt>
<wgt id='101'> +4.1935923e-04 </wgt>
<wgt id='102'> +4.1060225e-04 </wgt>
<wgt id='103'> +4.3369568e-04 </wgt>
<wgt id='104'> +3.9037225e-04 </wgt>
<wgt id='105'> +4.1470837e-04 </wgt>
<wgt id='106'> +3.9401868e-04 </wgt>
<wgt id='107'> +4.1341669e-04 </wgt>
<wgt id='108'> +3.4163342e-04 </wgt>
<wgt id='109'> +4.0005874e-04 </wgt>
<wgt id='110'> +4.0381862e-04 </wgt>
<wgt id='111'> +3.7656140e-04 </wgt>
<wgt id='112'> +3.5975229e-04 </wgt>
<wgt id='113'> +4.2522760e-04 </wgt>
<wgt id='114'> +3.8774517e-04 </wgt>
<wgt id='115'> +3.3200688e-04 </wgt>
<wgt id='116'> +4.3757270e-04 </wgt>
<wgt id='117'> +3.5363198e-04 </wgt>
<wgt id='118'> +4.0013543e-04 </wgt>
<wgt id='119'> +4.4906119e-04 </wgt>
<wgt id='120'> +3.9803360e-04 </wgt>
<wgt id='121'> +4.0911968e-04 </wgt>
<wgt id='122'> +3.9613489e-04 </wgt>
<wgt id='123'> +4.1887287e-04 </wgt>
<wgt id='124'> +4.0237696e-04 </wgt>
<wgt id='125'> +3.8622718e-04 </wgt>
<wgt id='126'> +3.8924161e-04 </wgt>
<wgt id='127'> +4.1250763e-04 </wgt>
<wgt id='128'> +3.8126028e-04 </wgt>
<wgt id='129'> +4.1494369e-04 </wgt>
<wgt id='130'> +3.4558556e-04 </wgt>
<wgt id='131'> +4.0247458e-04 </wgt>
<wgt id='132'> +3.8645682e-04 </wgt>
<wgt id='133'> +4.7641050e-04 </wgt>
<wgt id='134'> +3.7926410e-04 </wgt>
<wgt id='135'> +3.6222749e-04 </wgt>
<wgt id='136'> +4.4028321e-04 </wgt>
<wgt id='137'> +4.1603118e-04 </wgt>
<wgt id='138'> +3.8816899e-04 </wgt>
<wgt id='139'> +4.4299537e-04 </wgt>
<wgt id='140'> +3.5861309e-04 </wgt>
<wgt id='141'> +4.1816969e-04 </wgt>
<wgt id='142'> +3.2768661e-04 </wgt>
<wgt id='143'> +4.1843357e-04 </wgt>
<wgt id='144'> +3.8956121e-04 </wgt>
<wgt id='145'> +4.2094684e-04 </wgt>
</rwgt>
</event>
<event>
 4      1 +3.9510085e-04 1.32080900e+03 7.81653100e-03 9.01322400e-02
        1 -1    0    0  501    0 +0.0000000000e+00 +0.0000000000e+00 +8.6193900590e+02 8.6193900590e+02 0.0000000000e+00 0.0000e+00 -1.0000e+00
       -1 -1    0    0    0  501 -0.0000000000e+00 -0.0000000000e+00 -5.0599218870e+02 5.0599218870e+02 0.0000000000e+00 0.0000e+00 1.0000e+00
  2000013  1    1    2    0    0 -1.9847090334e+02 +4.5955964888e+02 +3.4351530452e+02 7.2704094437e+02 4.0000000000e+02 5.1078e+00 0.0000e+00
 -2000013  1    1    2    0    0 +1.9847090334e+02 -4.5955964888e+02 +1.2431512685e+01 6.4089025024e+02 4.0000000000e+02 2.7513e+01 0.0000e+00
<mgrwt>
<rscale>  0 0.13208095E+04</rscale>
<asrwt>0</asrwt>
<pdfrwt beam="1">  1        1 0.13260600E+00 0.13208095E+04</pdfrwt>
<pdfrwt beam="2">  1       -1 0.77844952E-01 0.13208095E+04</pdfrwt>
<totfact> 0.31746115E+01</totfact>
</mgrwt>
<rwgt>
<wgt id='1'> +4.1696236e-04 </wgt>
<wgt id='2'> +4.1903194e-04 </wgt>
<wgt id='3'> +4.1795209e-04 </wgt>
<wgt id='4'> +4.4156705e-04 </wgt>
<wgt id='5'> +4.1696236e-04 </wgt>
<wgt id='6'> +3.9510085e-04 </wgt>
<wgt id='7'> +3.9702029e-04 </wgt>
<wgt id='8'> +3.9601872e-04 </wgt>
<wgt id='9'> +4.1795209e-04 </wgt>
<wgt id='10'> +3.9510085e-04 </wgt>
<wgt id='11'> +3.7484332e-04 </wgt>
<wgt id='12'> +3.7662096e-04 </wgt>
<wgt id='13'> +3.7569338e-04 </wgt>
<wgt id='14'> +3.9601872e-04 </wgt>
<wgt id='15'> +3.7484332e-04 </wgt>
<wgt id='16'> +4.1696236e-04 </wgt>
<wgt id='17'> +4.1903194e-04 </wgt>
<wgt id='18'> +4.1795209e-04 </wgt>
<wgt id='19'> +4.4156705e-04 </wgt>
<wgt id='20'> +4.1696236e-04 </wgt>
<wgt id='21'> +3.9702029e-04 </wgt>
<wgt id='22'> +3.9601872e-04 </wgt>
<wgt id='23'> +4.1795209e-04 </wgt>
<wgt id='24'> +3.9510085e-04 </wgt>
<wgt id='25'> +3.7484332e-04 </wgt>
<wgt id='26'> +3.7662096e-04 </wgt>
<wgt id='27'> +3.7569338e-04 </wgt>
<wgt id='28'> +3.9601872e-04 </wgt>
<wgt id='29'> +3.7484332e-04 </wgt>
<wgt id='30'> +4.1696236e-04 </wgt>
<wgt id='31'> +4.1903194e-04 </wgt>
<wgt id='32'> +4.1795209e-04 </wgt>
<wgt id='33'> +4.4156705e-04 </wgt>
<wgt id='34'> +4.1696236e-04 </wgt>
<wgt id='35'> +3.9510085e-04 </wgt>
<wgt id='36'> +3.9702029e-04 </wgt>
<wgt id='37'> +3.9601872e-04 </wgt>
<wgt id='38'> +4.1795209e-04 </wgt>
<wgt id='39'> +3.9510085e-04 </wgt>
<wgt id='40'> +3.7484332e-04 </wgt>
<wgt id='41'> +3.7662096e-04 </wgt>
<wgt id='42'> +3.7569338e-04 </wgt>
<wgt id='43'> +3.9601872e-04 </wgt>
<wgt id='44'> +3.7484332e-04 </wgt>
<wgt id='45'> +3.9510085e-04 </wgt>
<wgt id='46'> +4.0400225e-04 </wgt>
<wgt id='47'> +3.9542666e-04 </wgt>
<wgt id='48'> +3.9009870e-04 </wgt>
<wgt id='49'> +3.8243544e-04 </wgt>
<wgt id='50'> +3.2098122e-04 </wgt>
<wgt id='51'> +3.9007211e-04 </wgt>
<wgt id='52'> +4.2588265e-04 </wgt>
<wgt id='53'> +4.0076977e-04 </wgt>
<wgt id='54'> +3.8831309e-04 </wgt>
<wgt id='55'> +3.9082317e-04 </wgt>
<wgt id='56'> +3.9734735e-04 </wgt>
<wgt id='57'> +3.5393028e-04 </wgt>
<wgt id='58'> +4.2185899e-04 </wgt>
<wgt id='59'> +3.7223194e-04 </wgt>
<wgt id='60'> +3.9263153e-04 </wgt>
<wgt id='61'> +3.8077128e-04 </wgt>
<wgt id='62'> +4.2702323e-04 </wgt>
<wgt id='63'> +4.0511250e-04 </wgt>
<wgt id='64'> +3.7223992e-04 </wgt>
<wgt id='65'> +3.7683024e-04 </wgt>
<wgt id='66'> +4.0167323e-04 </wgt>
<wgt id='67'> +4.1780467e-04 </wgt>
<wgt id='68'> +3.3298028e-04 </wgt>
<wgt id='69'> +3.7400633e-04 </wgt>
<wgt id='70'> +4.1626488e-04 </wgt>
<wgt id='71'> +4.1897413e-04 </wgt>
<wgt id='72'> +3.6382251e-04 </wgt>
<wgt id='73'> +4.1680447e-04 </wgt>
<wgt id='74'> +3.4964129e-04 </wgt>
<wgt id='75'> +3.5360340e-04 </wgt>
<wgt id='76'> +3.9266680e-04 </wgt>
<wgt id='77'> +4.0362503e-04 </wgt>
<wgt id='78'> +3.8840907e-04 </wgt>
<wgt id='79'> +4.0921203e-04 </wgt>
<wgt id='80'> +4.1456844e-04 </wgt>
<wgt id='81'> +4.2830292e-04 </wgt>
<wgt id='82'> +3.7474728e-04 </wgt>
<wgt id='83'> +3.8684793e-04 </wgt>
<wgt id='84'> +4.0765139e-04 </wgt>
<wgt id='85'> +3.7457822e-04 </wgt>
<wgt id='86'> +4.2869661e-04 </wgt>
<wgt id='87'> +3.9392784e-04 </wgt>
<wgt id='88'> +3.8244666e-04 </wgt>
<wgt id='89'> +4.7349764e-04 </wgt>
<wgt id='90'> +4.5300635e-04 </wgt>
<wgt id='91'> +4.0907049e-04 </wgt>
<wgt id='92'> +4.0406360e-04 </wgt>
<wgt id='93'> +4.0540685e-04 </wgt>
<wgt id='94'> +4.0974728e-04 </wgt>
<wgt id='95'> +3.7444719e-04 </wgt>
<wgt id='96'> +3.8291420e-04 </wgt>
<wgt id='97'> +3.8237243e-04 </wgt>
<wgt id='98'> +4.0421074e-04 </wgt>
<wgt id='99'> +4.3643686e-04 </wgt>
<wgt id='100'> +3.8625059e-04 </wgt>
<wgt id='101'> +3.7580285e-04 </wgt>
<wgt id='102'> +3.8899054e-04 </wgt>
<wgt id='103'> +3.9491754e-04 </wgt>
<wgt id='104'> +4.0153183e-04 </wgt>
<wgt id='105'> +3.9411754e-04 </wgt>
<wgt id='106'> +4.1619121e-04 </wgt>
<wgt id='107'> +3.8686985e-04 </wgt>
<wgt id='108'> +4.1368276e-04 </wgt>
<wgt id='109'> +3.6466772e-04 </wgt>
<wgt id='110'> +4.1565503e-04 </wgt>
<wgt id='111'> +3.9487142e-04 </wgt>
<wgt id='112'> +3.6408719e-04 </wgt>
<wgt id='113'> +3.9851296e-04 </wgt>
<wgt id='114'> +3.8217275e-04 </wgt>
<wgt id='115'> +3.8668201e-04 </wgt>
<wgt id='116'> +3.7336741e-04 </wgt>
<wgt id='117'> +3.7320322e-04 </wgt>
<wgt id='118'> +3.7351402e-04 </wgt>
<wgt id='119'> +3.9519463e-04 </wgt>
<wgt id='120'> +3.9882239e-04 </wgt>
<wgt id='121'> +3.6308365e-04 </wgt>
<wgt id='122'> +4.0168629e-04 </wgt>
<wgt id='123'> +3.9748239e-04 </wgt>
<wgt id='124'> +3.6555878e-04 </wgt>
<wgt id='125'> +3.1531411e-04 </wgt>
<wgt id='126'> +4.0912244e-04 </wgt>
<wgt id='127'> +3.9435678e-04 </wgt>
<wgt id='128'> +4.3521712e-04 </wgt>
<wgt id='129'> +3.6270961e-04 </wgt>
<wgt id='130'> +3.8932894e-04 </wgt>
<wgt id='131'> +4.1502929e-04 </wgt>
<wgt id='132'> +3.6628891e-04 </wgt>
<wgt id='133'> +4.5240943e-04 </wgt>
<wgt id='134'> +3.7455827e-04 </wgt>
<wgt id='135'> +3.4578971e-04 </wgt>
<wgt id='136'> +3.7991733e-04 </wgt>
<wgt id='137'> +4.1216123e-04 </wgt>
<wgt id='138'> +4.2867321e-04 </wgt>
<wgt id='139'> +4.4898062e-04 </wgt>
<wgt id='140'> +3.6032118e-04 </wgt>
<wgt id='141'> +3.9145260e-04 </wgt>
<wgt id='142'> +4.0879828e-04 </wgt>
<wgt id='143'> +3.9423813e-04 </wgt>
<wgt id='144'> +3.9399183e-04 </wgt>
<wgt id='145'> +4.3275272e-04 </wgt>
</rwgt>
</event>
<event>
 4      1 +3.9510085e-04 8.54621400e+02 7.81653100e-03 9.48415500e-02
        2 -1    0    0  501    0 +0.0000000000e+00 +0.0000000000e+00 +1.4592103836e+03 1.4592103836e+03 0.0000000000e+00 0.0000e+00 1.0000e+00
       -2 -1    0    0    0  501 -0.0000000000e+00 -0.0000000000e+00 -1.2513235460e+02 1.2513235460e+02 0.0000000000e+00 0.0000e+00 -1.0000e+00
  2000013  1    1    2    0    0 +1.0611762732e+02 -6.2224446741e+01 +8.2717587789e+02 9.2701281844e+02 4.0000000000e+02 2.0999e+01 0.0000e+00
 -2000013  1    1    2    0    0 -1.0611762732e+02 +6.2224446741e+01 +5.0690215108e+02 6.5732991973e+02 4.0000000000e+02 2.6524e+01 0.0000e+00
<mgrwt>
<rscale>  0 0.85462139E+03</rscale>
<asrwt>0</asrwt>
<pdfrwt beam="1">  1        2 0.22449389E+00 0.85462139E+03</pdfrwt>
<pdfrwt beam="2">  1       -2 0.19251133E-01 0.85462139E+03</pdfrwt>
<totfact> 0.30733429E+02</totfact>
</mgrwt>
<rwgt>
<wgt id='1'> +4.0834511e-04 </wgt>
<wgt id='2'> +4.2816314e-04 </wgt>
<wgt id='3'> +4.0874100e-04 </wgt>
<wgt id='4'> +4.2166973e-04 </wgt>
<wgt id='5'> +4.0834511e-04 </wgt>
<wgt id='6'> +3.9510085e-04 </wgt>
<wgt id='7'> +4.1555826e-04 </wgt>
<wgt id='8'> +3.9550051e-04 </wgt>
<wgt id='9'> +4.0874100e-04 </wgt>
<wgt id='10'> +3.9510085e-04 </wgt>
<wgt id='11'> +3.8186987e-04 </wgt>
<wgt id='12'> +4.0243163e-04 </wgt>
<wgt id='13'> +3.8226574e-04 </wgt>
<wgt id='14'> +3.9550051e-04 </wgt>
<wgt id='15'> +3.8186987e-04 </wgt>
<wgt id='16'> +4.0834511e-04 </wgt>
<wgt id='17'> +4.2816314e-04 </wgt>
<wgt id='18'> +4.0874100e-04 </wgt>
<wgt id='19'> +4.2166973e-04 </wgt>
<wgt id='20'> +4.0834511e-04 </wgt>
<wgt id='21'> +4.1555826e-04 </wgt>
<wgt id='22'> +3.9550051e-04 </wgt>
<wgt id='23'> +4.0874100e-04 </wgt>
<wgt id='24'> +3.9510085e-04 </wgt>
<wgt id='25'> +3.8186987e-04 </wgt>
<wgt id='26'> +4.0243163e-04 </wgt>
<wgt id='27'> +3.8226574e-04 </wgt>
<wgt id='28'> +3.9550051e-04 </wgt>
<wgt id='29'> +3.8186987e-04 </wgt>
<wgt id='30'> +4.0834511e-04 </wgt>
<wgt id='31'> +4.2816314e-04 </wgt>
<wgt id='32'> +4.0874100e-04 </wgt>
<wgt id='33'> +4.2166973e-04 </wgt>
<wgt id='34'> +4.0834511e-04 </wgt>
<wgt id='35'> +3.9510085e-04 </wgt>
<wgt id='36'> +4.1555826e-04 </wgt>
<wgt id='37'> +3.9550051e-04 </wgt>
<wgt id='38'> +4.0874100e-04 </wgt>
<wgt id='39'> +3.9510085e-04 </wgt>
<wgt id='40'> +3.8186987e-04 </wgt>
<wgt id='41'> +4.0243163e-04 </wgt>
<wgt id='42'> +3.8226574e-04 </wgt>
<wgt id='43'> +3.9550051e-04 </wgt>
<wgt id='44'> +3.8186987e-04 </wgt>
<wgt id='45'> +3.9510085e-04 </wgt>
<wgt id='46'> +4.0801583e-04 </wgt>
<wgt id='47'> +3.8557306e-04 </wgt>
<wgt id='48'> +3.8059431e-04 </wgt>
<wgt id='49'> +3.9099572e-04 </wgt>
<wgt id='50'> +3.4389478e-04 </wgt>
<wgt id='51'> +3.8952343e-04 </wgt>
<wgt id='52'> +4.0044644e-04 </wgt>
<wgt id='53'> +4.0422235e-04 </wgt>
<wgt id='54'> +3.8351548e-04 </wgt>
<wgt id='55'> +3.6637627e-04 </wgt>
<wgt id='56'> +4.3170865e-04 </wgt>
<wgt id='57'> +3.7710399e-04 </wgt>
<wgt id='58'> +4.1257403e-04 </wgt>
<wgt id='59'> +3.6245046e-04 </wgt>
<wgt id='60'> +4.0074866e-04 </wgt>
<wgt id='61'> +4.3214187e-04 </wgt>
<wgt id='62'> +4.1210818e-04 </wgt>
<wgt id='63'> +4.1133472e-04 </wgt>
<wgt id='64'> +3.8404913e-04 </wgt>
<wgt id='65'> +3.7682995e-04 </wgt>
<wgt id='66'> +4.0088030e-04 </wgt>
<wgt id='67'> +4.1238639e-04 </wgt>
<wgt id='68'> +3.2946622e-04 </wgt>
<wgt id='69'> +3.7129896e-04 </wgt>
<wgt id='70'> +3.8911234e-04 </wgt>
<wgt id='71'> +3.9386389e-04 </wgt>
<wgt id='72'> +4.0000455e-04 </wgt>
<wgt id='73'> +4.1043822e-04 </wgt>
<wgt id='74'> +3.4682537e-04 </wgt>
<wgt id='75'> +3.7587550e-04 </wgt>
<wgt id='76'> +4.0772498e-04 </wgt>
<wgt id='77'> +4.0940111e-04 </wgt>
<wgt id='78'> +4.1221025e-04 </wgt>
<wgt id='79'> +3.9892915e-04 </wgt>
<wgt id='80'> +4.3244197e-04 </wgt>
<wgt id='81'> +4.0441656e-04 </wgt>
<wgt id='82'> +3.8427434e-04 </wgt>
<wgt id='83'> +3.8456396e-04 </wgt>
<wgt id='84'> +4.0500283e-04 </wgt>
<wgt id='85'> +3.9937481e-04 </wgt>
<wgt id='86'> +4.0696244e-04 </wgt>
<wgt id='87'> +4.0119098e-04 </wgt>
<wgt id='88'> +3.9682749e-04 </wgt>
<wgt id='89'> +4.3697019e-04 </wgt>
<wgt id='90'> +4.4191331e-04 </wgt>
<wgt id='91'> +3.6624030e-04 </wgt>
<wgt id='92'> +4.2288329e-04 </wgt>
<wgt id='93'> +3.9533669e-04 </wgt>
<wgt id='94'> +4.1294892e-04 </wgt>
<wgt id='95'> +3.9083644e-04 </wgt>
<wgt id='96'> +3.8704756e-04 </wgt>
<wgt id='97'> +4.1449574e-04 </wgt>
<wgt id='98'> +4.0292253e-04 </wgt>
<wgt id='99'> +4.2407862e-04 </wgt>
<wgt id='100'> +4.1173979e-04 </wgt>
<wgt id='101'> +3.4084707e-04 </wgt>
<wgt id='102'> +3.7288084e-04 </wgt>
<wgt id='103'> +3.9398956e-04 </wgt>
<wgt id='104'> +3.7869763e-04 </wgt>
<wgt id='105'> +3.8682788e-04 </wgt>
<wgt id='106'> +4.2687638e-04 </wgt>
<wgt id='107'> +3.8360356e-04 </wgt>
<wgt id='108'> +4.3494793e-04 </wgt>
<wgt id='109'> +4.0544199e-04 </wgt>
<wgt id='110'> +4.1601037e-04 </wgt>
<wgt id='111'> +4.1023301e-04 </wgt>
<wgt id='112'> +3.9706795e-04 </wgt>
<wgt id='113'> +3.9711398e-04 </wgt>
<wgt id='114'> +3.8761356e-04 </wgt>
<wgt id='115'> +4.1276668e-04 </wgt>
<wgt id='116'> +3.6529867e-04 </wgt>
<wgt id='117'> +3.9624805e-04 </wgt>
<wgt id='118'> +3.7307788e-04 </wgt>
<wgt id='119'> +4.0145679e-04 </wgt>
<wgt id='120'> +3.9941733e-04 </wgt>
<wgt id='121'> +3.9041652e-04 </wgt>
<wgt id='122'> +4.0700527e-04 </wgt>
<wgt id='123'> +4.2320246e-04 </wgt>
<wgt id='124'> +3.6578473e-04 </wgt>
<wgt id='125'> +3.3255038e-04 </wgt>
<wgt id='126'> +4.0128118e-04 </wgt>
<wgt id='127'> +3.9629621e-04 </wgt>
<wgt id='128'> +4.0004850e-04 </wgt>
<wgt id='129'> +3.5579279e-04 </wgt>
<wgt id='130'> +3.8730392e-04 </wgt>
<wgt id='131'> +3.9683646e-04 </wgt>
<wgt id='132'> +3.6953124e-04 </wgt>
<wgt id='133'> +4.0870679e-04 </wgt>
<wgt id='134'> +3.7777698e-04 </wgt>
<wgt id='135'> +3.7359434e-04 </wgt>
<wgt id='136'> +3.7325898e-04 </wgt>
<wgt id='137'> +4.1305721e-04 </wgt>
<wgt id='138'> +4.1037777e-04 </wgt>
<wgt id='139'> +4.1298501e-04 </wgt>
<wgt id='140'> +3.7851188e-04 </wgt>
<wgt id='141'> +3.6865795e-04 </wgt>
<wgt id='142'> +4.3096635e-04 </wgt>
<wgt id='143'> +4.0374474e-04 </wgt>
<wgt id='144'> +4.2041238e-04 </wgt>
<wgt id='145'> +4.2043067e-04 </wgt>
</rwgt>
</event>
<event>
 4      1 +3.9510085e-04 1.19546300e+03 7.81653100e-03 9.11683700e-02
       -2 -1    0    0    0  501 -0.0000000000e+00 +0.0000000000e+00 +3.2927507906e+02 3.2927507906e+02 0.0000000000e+00 0.0000e+00 -1.0000e+00
        2 -1    0    0  501    0 +0.0000000000e+00 -0.0000000000e+00 -1.0850600407e+03 1.0850600407e+03 0.0000000000e+00 0.0000e+00 1.0000e+00
  2000013  1    1    2    0    0 -3.9167694450e+02 +5.3255361715e+01 -6.1755490272e+02 8.3523710423e+02 4.0000000000e+02 3.8693e+01 0.0000e+00
 -2000013  1    1    2    0    0 +3.9167694450e+02 -5.3255361715e+01 -1.3823005892e+02 5.7909801553e+02 4.0000000000e+02 6.4517e+00 0.0000e+00
<mgrwt>
<rscale>  0 0.11954635E+04</rscale>
<asrwt>0</asrwt>
<pdfrwt beam="2">  1        2 0.16693231E+00 0.11954635E+04</pdfrwt>
<pdfrwt beam="1">  1       -2 0.50657706E-01 0.11954635E+04</pdfrwt>
<totfact> 0.80918747E+01</totfact>
</mgrwt>
<rwgt>
<wgt id='1'> +4.1190451e-04 </wgt>
<wgt id='2'> +4.1640086e-04 </wgt>
<wgt id='3'> +4.1341084e-04 </wgt>
<wgt id='4'> +4.3075956e-04 </wgt>
<wgt id='5'> +4.1190451e-04 </wgt>
<wgt id='6'> +3.9510085e-04 </wgt>
<wgt id='7'> +3.9944415e-04 </wgt>
<wgt id='8'> +3.9655462e-04 </wgt>
<wgt id='9'> +4.1341084e-04 </wgt>
<wgt id='10'> +3.9510085e-04 </wgt>
<wgt id='11'> +3.7896346e-04 </wgt>
<wgt id='12'> +3.8312222e-04 </wgt>
<wgt id='13'> +3.8035458e-04 </wgt>
<wgt id='14'> +3.9655462e-04 </wgt>
<wgt id='15'> +3.7896346e-04 </wgt>
<wgt id='16'> +4.1190451e-04 </wgt>
<wgt id='17'> +4.1640086e-04 </wgt>
<wgt id='18'> +4.1341084e-04 </wgt>
<wgt id='19'> +4.3075956e-04 </wgt>
<wgt id='20'> +4.1190451e-04 </wgt>
<wgt id='21'> +3.9944415e-04 </wgt>
<wgt id='22'> +3.9655462e-04 </wgt>
<wgt id='23'> +4.1341084e-04 </wgt>
<wgt id='24'> +3.9510085e-04 </wgt>
<wgt id='25'> +3.7896346e-04 </wgt>
<wgt id='26'> +3.8312222e-04 </wgt>
<wgt id='27'> +3.8035458e-04 </wgt>
<wgt id='28'> +3.9655462e-04 </wgt>
<wgt id='29'> +3.7896346e-04 </wgt>
<wgt id='30'> +4.1190451e-04 </wgt>
<wgt id='31'> +4.1640086e-04 </wgt>
<wgt id='32'> +4.1341084e-04 </wgt>
<wgt id='33'> +4.3075956e-04 </wgt>
<wgt id='34'> +4.1190451e-04 </wgt>
<wgt id='35'> +3.9510085e-04 </wgt>
<wgt id='36'> +3.9944415e-04 </wgt>
<wgt id='37'> +3.9655462e-04 </wgt>
<wgt id='38'> +4.1341084e-04 </wgt>
<wgt id='39'> +3.9510085e-04 </wgt>
<wgt id='40'> +3.7896346e-04 </wgt>
<wgt id='41'> +3.8312222e-04 </wgt>
<wgt id='42'> +3.8035458e-04 </wgt>
<wgt id='43'> +3.9655462e-04 </wgt>
<wgt id='44'> +3.7896346e-04 </wgt>
<wgt id='45'> +3.9510085e-04 </wgt>
<wgt id='46'> +4.1391324e-04 </wgt>
<wgt id='47'> +3.8561715e-04 </wgt>
<wgt id='48'> +3.7814513e-04 </wgt>
<wgt id='49'> +4.0955726e-04 </wgt>
<wgt id='50'> +3.3253779e-04 </wgt>
<wgt id='51'> +3.8598053e-04 </wgt>
<wgt id='52'> +4.1579734e-04 </wgt>
<wgt id='53'> +4.0555811e-04 </wgt>
<wgt id='54'> +3.7839335e-04 </wgt>
<wgt id='55'> +3.6822296e-04 </wgt>
<wgt id='56'> +4.2825552e-04 </wgt>
<wgt id='57'> +3.6086092e-04 </wgt>
<wgt id='58'> +4.2103067e-04 </wgt>
<wgt id='59'> +3.7787113e-04 </wgt>
<wgt id='60'> +4.0154951e-04 </wgt>
<wgt id='61'> +4.0292517e-04 </wgt>
<wgt id='62'> +4.1094397e-04 </wgt>
<wgt id='63'> +4.2012922e-04 </wgt>
<wgt id='64'> +3.7520018e-04 </wgt>
<wgt id='65'> +3.7028141e-04 </wgt>
<wgt id='66'> +3.9799773e-04 </wgt>
<wgt id='67'> +4.1855067e-04 </wgt>
<wgt id='68'> +3.3238605e-04 </wgt>
<wgt id='69'> +3.7529656e-04 </wgt>
<wgt id='70'> +4.0675433e-04 </wgt>
<wgt id='71'> +3.8852458e-04 </wgt>
<wgt id='72'> +3.7932226e-04 </wgt>
<wgt id='73'> +4.1178955e-04 </wgt>
<wgt id='74'> +3.4484764e-04 </wgt>
<wgt id='75'> +3.7418536e-04 </wgt>
<wgt id='76'> +3.9481678e-04 </wgt>
<wgt id='77'> +4.1711611e-04 </wgt>
<wgt id='78'> +3.9459625e-04 </wgt>
<wgt id='79'> +3.9680292e-04 </wgt>
<wgt id='80'> +4.1726070e-04 </wgt>
<wgt id='81'> +4.1288943e-04 </wgt>
<wgt id='82'> +3.8495306e-04 </wgt>
<wgt id='83'> +3.8286406e-04 </wgt>
<wgt id='84'> +4.0892734e-04 </wgt>
<wgt id='85'> +4.0223116e-04 </wgt>
<wgt id='86'> +4.3727391e-04 </wgt>
<wgt id='87'> +4.0024973e-04 </wgt>
<wgt id='88'> +3.8146736e-04 </wgt>
<wgt id='89'> +4.7432131e-04 </wgt>
<wgt id='90'> +4.5112677e-04 </wgt>
<wgt id='91'> +3.6461173e-04 </wgt>
<wgt id='92'> +4.1769497e-04 </wgt>
<wgt id='93'> +3.9493134e-04 </wgt>
<wgt id='94'> +4.1949370e-04 </wgt>
<wgt id='95'> +3.8379881e-04 </wgt>
<wgt id='96'> +3.8575205e-04 </wgt>
<wgt id='97'> +4.0805684e-04 </wgt>
<wgt id='98'> +4.0199498e-04 </wgt>
<wgt id='99'> +4.2659349e-04 </wgt>
<wgt id='100'> +3.8991000e-04 </wgt>
<wgt id='101'> +3.5616118e-04 </wgt>
<wgt id='102'> +3.8494158e-04 </wgt>
<wgt id='103'> +4.0690055e-04 </wgt>
<wgt id='104'> +3.7702711e-04 </wgt>
<wgt id='105'> +3.8060546e-04 </wgt>
<wgt id='106'> +4.1388135e-04 </wgt>
<wgt id='107'> +3.8722597e-04 </wgt>
<wgt id='108'> +4.2197708e-04 </wgt>
<wgt id='109'> +4.0881239e-04 </wgt>
<wgt id='110'> +4.1089854e-04 </wgt>
<wgt id='111'> +3.9762535e-04 </wgt>
<wgt id='112'> +3.7502379e-04 </wgt>
<wgt id='113'> +3.9677850e-04 </wgt>
<wgt id='114'> +3.8423316e-04 </wgt>
<wgt id='115'> +3.9019022e-04 </wgt>
<wgt id='116'> +3.7395073e-04 </wgt>
<wgt id='117'> +3.8571745e-04 </wgt>
<wgt id='118'> +3.7886828e-04 </wgt>
<wgt id='119'> +4.0887882e-04 </wgt>
<wgt id='120'> +3.9179845e-04 </wgt>
<wgt id='121'> +3.9213318e-04 </wgt>
<wgt id='122'> +3.9891172e-04 </wgt>
<wgt id='123'> +4.1359541e-04 </wgt>
<wgt id='124'> +3.6721281e-04 </wgt>
<wgt id='125'> +3.3238114e-04 </wgt>
<wgt id='126'> +4.0717473e-04 </wgt>
<wgt id='127'> +4.0623431e-04 </wgt>
<wgt id='128'> +4.0806728e-04 </wgt>
<wgt id='129'> +3.6469018e-04 </wgt>
<wgt id='130'> +3.7244486e-04 </wgt>
<wgt id='131'> +4.0478979e-04 </wgt>
<wgt id='132'> +3.7703441e-04 </wgt>
<wgt id='133'> +4.4897186e-04 </wgt>
<wgt id='134'> +3.6644627e-04 </wgt>
<wgt id='135'> +3.6773231e-04 </wgt>
<wgt id='136'> +3.7992858e-04 </wgt>
<wgt id='137'> +4.1169672e-04 </wgt>
<wgt id='138'> +4.1105603e-04 </wgt>
<wgt id='139'> +4.5011731e-04 </wgt>
<wgt id='140'> +3.5950896e-04 </wgt>
<wgt id='141'> +3.7272430e-04 </wgt>
<wgt id='142'> +4.0519298e-04 </wgt>
<wgt id='143'> +4.0430855e-04 </wgt>
<wgt id='144'> +4.1230004e-04 </wgt>
<wgt id='145'> +4.2275095e-04 </wgt>
</rwgt>
</event>
<event>
 4      1 +3.9510085e-04 2.46080600e+03 7.81653100e-03 8.41708300e-02
        2 -1    0    0  501    0 +0.0000000000e+00 +0.0000000000e+00 +1.5727856274e+03 1.5727856274e+03 0.0000000000e+00 0.0000e+00 1.0000e+00
       -2 -1    0    0    0  501 -0.0000000000e+00 -0.0000000000e+00 -9.6255443942e+02 9.6255443942e+02 0.0000000000e+00 0.0000e+00 -1.0000e+00
  2000013  1    1    2    0    0 -2.8165932241e+02 -1.0638531187e+03 -8.4186692041e+01 1.1739688374e+03 4.0000000000e+02 2.7640e+01 0.0000e+00
 -2000013  1    1    2    0    0 +2.8165932241e+02 +1.0638531187e+03 +6.9441787999e+02 1.3613712294e+03 4.0000000000e+02 2.6909e+01 0.0000e+00
<mgrwt>
<rscale>  0 0.24608062E+04</rscale>
<asrwt>0</asrwt>
<pdfrwt beam="1">  1        2 0.24196702E+00 0.24608062E+04</pdfrwt>
<pdfrwt beam="2">  1       -2 0.14808530E+00 0.24608062E+04</pdfrwt>
<totfact> 0.32042758E+00</totfact>
</mgrwt>
<rwgt>
<wgt id='1'> +4.2795269e-04 </wgt>
<wgt id='2'> +4.3088128e-04 </wgt>
<wgt id='3'> +4.3044690e-04 </wgt>
<wgt id='4'> +4.6760113e-04 </wgt>
<wgt id='5'> +4.2795269e-04 </wgt>
<wgt id='6'> +3.9510085e-04 </wgt>
<wgt id='7'> +3.9771414e-04 </wgt>
<wgt id='8'> +3.9732655e-04 </wgt>
<wgt id='9'> +4.3044690e-04 </wgt>
<wgt id='10'> +3.9510085e-04 </wgt>
<wgt id='11'> +3.6574818e-04 </wgt>
<wgt id='12'> +3.6808608e-04 </wgt>
<wgt id='13'> +3.6773937e-04 </wgt>
<wgt id='14'> +3.9732655e-04 </wgt>
<wgt id='15'> +3.6574818e-04 </wgt>
<wgt id='16'> +4.2795269e-04 </wgt>
<wgt id='17'> +4.3088128e-04 </wgt>
<wgt id='18'> +4.3044690e-04 </wgt>
<wgt id='19'> +4.6760113e-04 </wgt>
<wgt id='20'> +4.2795269e-04 </wgt>
<wgt id='21'> +3.9771414e-04 </wgt>
<wgt id='22'> +3.9732655e-04 </wgt>
<wgt id='23'> +4.3044690e-04 </wgt>
<wgt id='24'> +3.9510085e-04 </wgt>
<wgt id='25'> +3.6574818e-04 </wgt>
<wgt id='26'> +3.6808608e-04 </wgt>
<wgt id='27'> +3.6773937e-04 </wgt>
<wgt id='28'> +3.9732655e-04 </wgt>
<wgt id='29'> +3.6574818e-04 </wgt>
<wgt id='30'> +4.2795269e-04 </wgt>
<wgt id='31'> +4.3088128e-04 </wgt>
<wgt id='32'> +4.3044690e-04 </wgt>
<wgt id='33'> +4.6760113e-04 </wgt>
<wgt id='34'> +4.2795269e-04 </wgt>
<wgt id='35'> +3.9510085e-04 </wgt>
<wgt id='36'> +3.9771414e-04 </wgt>
<wgt id='37'> +3.9732655e-04 </wgt>
<wgt id='38'> +4.3044690e-04 </wgt>
<wgt id='39'> +3.9510085e-04 </wgt>
<wgt id='40'> +3.6574818e-04 </wgt>
<wgt id='41'> +3.6808608e-04 </wgt>
<wgt id='42'> +3.6773937e-04 </wgt>
<wgt id='43'> +3.9732655e-04 </wgt>
<wgt id='44'> +3.6574818e-04 </wgt>
<wgt id='45'> +3.9510085e-04 </wgt>
<wgt id='46'> +4.1206228e-04 </wgt>
<wgt id='47'> +3.9179834e-04 </wgt>
<wgt id='48'> +3.8159404e-04 </wgt>
<wgt id='49'> +4.3106554e-04 </wgt>
<wgt id='50'> +3.2305939e-04 </wgt>
<wgt id='51'> +3.6072764e-04 </wgt>
<wgt id='52'> +4.2013553e-04 </wgt>
<wgt id='53'> +4.2773533e-04 </wgt>
<wgt id='54'> +3.9467703e-04 </wgt>
<wgt id='55'> +3.7803995e-04 </wgt>
<wgt id='56'> +3.6593248e-04 </wgt>
<wgt id='57'> +3.3750963e-04 </wgt>
<wgt id='58'> +4.7932906e-04 </wgt>
<wgt id='59'> +4.0444568e-04 </wgt>
<wgt id='60'> +4.0644680e-04 </wgt>
<wgt id='61'> +3.7430970e-04 </wgt>
<wgt id='62'> +3.9210785e-04 </wgt>
<wgt id='63'> +4.0483608e-04 </wgt>
<wgt id='64'> +3.5519699e-04 </wgt>
<wgt id='65'> +3.3026517e-04 </wgt>
<wgt id='66'> +3.5927281e-04 </wgt>
<wgt id='67'> +4.2788655e-04 </wgt>
<wgt id='68'> +3.5678555e-04 </wgt>
<wgt id='69'> +3.6165039e-04 </wgt>
<wgt id='70'> +4.6843934e-04 </wgt>
<wgt id='71'> +3.4210543e-04 </wgt>
<wgt id='72'> +3.6124141e-04 </wgt>
<wgt id='73'> +4.4216221e-04 </wgt>
<wgt id='74'> +3.7732385e-04 </wgt>
<wgt id='75'> +3.6256636e-04 </wgt>
<wgt id='76'> +3.9130733e-04 </wgt>
<wgt id='77'> +3.6224057e-04 </wgt>
<wgt id='78'> +3.6987921e-04 </wgt>
<wgt id='79'> +4.1254705e-04 </wgt>
<wgt id='80'> +3.2726814e-04 </wgt>
<wgt id='81'> +4.3512060e-04 </wgt>
<wgt id='82'> +4.1457405e-04 </wgt>
<wgt id='83'> +4.0647230e-04 </wgt>
<wgt id='84'> +4.0216143e-04 </wgt>
<wgt id='85'> +3.8936997e-04 </wgt>
<wgt id='86'> +4.7430745e-04 </wgt>
<wgt id='87'> +4.2339617e-04 </wgt>
<wgt id='88'> +3.8936434e-04 </wgt>
<wgt id='89'> +4.7707452e-04 </wgt>
<wgt id='90'> +4.3323691e-04 </wgt>
<wgt id='91'> +3.3992142e-04 </wgt>
<wgt id='92'> +3.7544375e-04 </wgt>
<wgt id='93'> +3.8827279e-04 </wgt>
<wgt id='94'> +4.2915152e-04 </wgt>
<wgt id='95'> +3.5834141e-04 </wgt>
<wgt id='96'> +3.9972217e-04 </wgt>
<wgt id='97'> +3.7934138e-04 </wgt>
<wgt id='98'> +4.2208446e-04 </wgt>
<wgt id='99'> +4.2019349e-04 </wgt>
<wgt id='100'> +3.0947331e-04 </wgt>
<wgt id='101'> +4.0657285e-04 </wgt>
<wgt id='102'> +4.1392001e-04 </wgt>
<wgt id='103'> +4.4384673e-04 </wgt>
<wgt id='104'> +3.8246592e-04 </wgt>
<wgt id='105'> +4.1456221e-04 </wgt>
<wgt id='106'> +4.0593691e-04 </wgt>
<wgt id='107'> +4.0677266e-04 </wgt>
<wgt id='108'> +3.4476795e-04 </wgt>
<wgt id='109'> +3.9038913e-04 </wgt>
<wgt id='110'> +4.0716731e-04 </wgt>
<wgt id='111'> +3.7817363e-04 </wgt>
<wgt id='112'> +3.5790069e-04 </wgt>
<wgt id='113'> +4.2685732e-04 </wgt>
<wgt id='114'> +3.7630161e-04 </wgt>
<wgt id='115'> +3.3285885e-04 </wgt>
<wgt id='116'> +4.1357891e-04 </wgt>
<wgt id='117'> +3.5499061e-04 </wgt>
<wgt id='118'> +4.0419747e-04 </wgt>
<wgt id='119'> +4.5535252e-04 </wgt>
<wgt id='120'> +4.0716809e-04 </wgt>
<wgt id='121'> +4.0051860e-04 </wgt>
<wgt id='122'> +3.9899050e-04 </wgt>
<wgt id='123'> +4.2234621e-04 </wgt>
<wgt id='124'> +3.9358042e-04 </wgt>
<wgt id='125'> +3.7035222e-04 </wgt>
<wgt id='126'> +3.9722944e-04 </wgt>
<wgt id='127'> +4.1524786e-04 </wgt>
<wgt id='128'> +3.6985658e-04 </wgt>
<wgt id='129'> +4.0267621e-04 </wgt>
<wgt id='130'> +3.4614375e-04 </wgt>
<wgt id='131'> +4.1052934e-04 </wgt>
<wgt id='132'> +3.8521853e-04 </wgt>
<wgt id='133'> +4.8736725e-04 </wgt>
<wgt id='134'> +3.7757124e-04 </wgt>
<wgt id='135'> +3.4898656e-04 </wgt>
<wgt id='136'> +4.3786691e-04 </wgt>
<wgt id='137'> +4.1882045e-04 </wgt>
<wgt id='138'> +3.9497480e-04 </wgt>
<wgt id='139'> +4.6401230e-04 </wgt>
<wgt id='140'> +3.6029475e-04 </wgt>
<wgt id='141'> +4.1135176e-04 </wgt>
<wgt id='142'> +3.2422020e-04 </wgt>
<wgt id='143'> +4.1623548e-04 </wgt>
<wgt id='144'> +3.8940217e-04 </wgt>
<wgt id='145'> +4.3510061e-04 </wgt>
</rwgt>
</event>
</LesHouchesEvents>
